/*--------------------------------*- C++ -*----------------------------------*\
| =========                 |                                                 |
| \\      /  F ield         | OpenFOAM: The Open Source CFD Toolbox           |
|  \\    /   O peration     | Version:  2312                                  |
|   \\  /    A nd           | Website:  www.openfoam.com                      |
|    \\/     M anipulation  |                                                 |
\*---------------------------------------------------------------------------*/
FoamFile
{
    version     2.0;
    format      ascii;
    arch        "LSB;label=32;scalar=64";
    class       volScalarField;
    location    "0.2";
    object      T;
}
// * * * * * * * * * * * * * * * * * * * * * * * * * * * * * * * * * * * * * //

dimensions      [0 0 0 1 0 0 0];

internalField   nonuniform List<scalar> 
1000
(
0
0
0
0
0
0
0
0
0
0
0
0
0
0
0
0
0
0
0
0
0
0
0
0
0
0
0
0
0
0
0
0
0
0
0
0
0
0
0
0
0
0
0
0
0
0
0
0
0
0
0
0
0
0
0
0
0
0
0
0
0
0
0
0
0
0
0
0
4.94066e-323
-7.5592e-322
1.07212e-320
-1.50878e-319
2.11795e-318
-2.96777e-317
4.15117e-316
-5.79604e-315
8.07813e-314
-1.12384e-312
1.56067e-311
-2.16336e-310
2.99332e-309
-4.1341e-308
5.69916e-307
-7.84221e-306
1.07711e-304
-1.47665e-303
2.02062e-302
-2.75979e-301
3.7623e-300
-5.11931e-299
6.9526e-298
-9.42449e-297
1.27509e-295
-1.72184e-294
2.32067e-293
-3.12173e-292
4.19119e-291
-5.61613e-290
7.51088e-289
-1.00253e-287
1.33552e-286
-1.77561e-285
2.35607e-284
-3.12009e-283
4.12365e-282
-5.43913e-281
7.15989e-280
-9.4061e-279
1.23321e-277
-1.61355e-276
2.10691e-275
-2.74551e-274
3.57035e-273
-4.63347e-272
6.00074e-271
-7.7554e-270
1.00023e-268
-1.28734e-267
1.65339e-266
-2.11907e-265
2.71018e-264
-3.45886e-263
4.405e-262
-5.59799e-261
7.09888e-260
-8.98286e-259
1.13424e-257
-1.42907e-256
1.79663e-255
-2.25382e-254
2.82117e-253
-3.5236e-252
4.39124e-251
-5.46043e-250
6.77491e-249
-8.3871e-248
1.03598e-246
-1.27677e-245
1.56999e-244
-1.9262e-243
2.35786e-242
-2.8797e-241
3.509e-240
-4.26602e-239
5.17442e-238
-6.26177e-237
7.56006e-236
-9.10629e-235
1.09432e-233
-1.31197e-232
1.56922e-231
-1.87248e-230
2.22904e-229
-2.6472e-228
3.13629e-227
-3.70684e-226
4.37064e-225
-5.14086e-224
6.03216e-223
-7.06077e-222
8.24459e-221
-9.60329e-220
1.11584e-218
-1.29332e-217
1.49532e-216
-1.72457e-215
1.98399e-214
-2.27671e-213
2.60604e-212
-2.97547e-211
3.38864e-210
-3.84936e-209
4.36154e-208
-4.92917e-207
5.55633e-206
-6.24708e-205
7.00545e-204
-7.83541e-203
8.74076e-202
-9.72509e-201
1.07917e-199
-1.19436e-198
1.31834e-197
-1.45129e-196
1.59338e-195
-1.74466e-194
1.90515e-193
-2.07477e-192
2.25333e-191
-2.44057e-190
2.63611e-189
-2.83947e-188
3.05006e-187
-3.26716e-186
3.48996e-185
-3.71752e-184
3.94877e-183
-4.18257e-182
4.41765e-181
-4.65267e-180
4.88618e-179
-5.11669e-178
5.34263e-177
-5.5624e-176
5.77439e-175
-5.97697e-174
6.16853e-173
-6.3475e-172
6.51237e-171
-6.66169e-170
6.79414e-169
-6.90849e-168
7.00365e-167
-7.0787e-166
7.13288e-165
-7.1656e-164
7.17646e-163
-7.16528e-162
7.13206e-161
-7.07702e-160
7.00057e-159
-6.90331e-158
6.78605e-157
-6.64977e-156
6.4956e-155
-6.32483e-154
6.1389e-153
-5.93932e-152
5.72772e-151
-5.50578e-150
5.27525e-149
-5.03786e-148
4.79538e-147
-4.54953e-146
4.30199e-145
-4.0544e-144
3.8083e-143
-3.56513e-142
3.32623e-141
-3.09283e-140
2.86602e-139
-2.64677e-138
2.43589e-137
-2.23407e-136
2.04187e-135
-1.85971e-134
1.68786e-133
-1.52651e-132
1.3757e-131
-1.23538e-130
1.10542e-129
-9.85575e-129
8.7556e-128
-7.75006e-127
6.83503e-126
-6.00598e-125
5.25808e-124
-4.5863e-123
3.98548e-122
-3.45044e-121
2.97602e-120
-2.55715e-119
2.1889e-118
-1.86653e-117
1.58555e-116
-1.34168e-115
1.13092e-114
-9.49552e-114
7.94153e-113
-6.61573e-112
5.48946e-111
-4.53681e-110
3.73449e-109
-3.06169e-108
2.49996e-107
-2.03298e-106
1.64648e-105
-1.32797e-104
1.06665e-103
-8.53187e-103
6.7959e-102
-5.39037e-101
4.25745e-100
-3.34833e-99
2.62206e-98
-2.04448e-97
1.58723e-96
-1.22687e-95
9.44168e-95
-7.23403e-94
5.51798e-93
-4.19021e-92
3.16765e-91
-2.3838e-90
1.78576e-89
-1.33163e-88
9.88413e-88
-7.30257e-87
5.37009e-86
-3.93045e-85
2.86316e-84
-2.07576e-83
1.4977e-82
-1.0754e-81
7.68433e-81
-5.46402e-80
3.86612e-79
-2.72196e-78
1.90685e-77
-1.32911e-76
9.21734e-76
-6.35961e-75
4.36536e-74
-2.98098e-73
2.02502e-72
-1.36841e-71
9.1982e-71
-6.14993e-70
4.0898e-69
-2.70508e-68
1.77945e-67
-1.16413e-66
7.57367e-66
-4.89987e-65
3.15221e-64
-2.01641e-63
1.28249e-62
-8.11005e-62
5.09875e-61
-3.1868e-60
1.98004e-59
-1.22293e-58
7.5078e-58
-4.58127e-57
2.77843e-56
-1.67466e-55
1.0031e-54
-5.9708e-54
3.53151e-53
-2.07541e-52
1.21182e-51
-7.02972e-51
4.05111e-50
-2.31909e-49
1.3187e-48
-7.44772e-48
4.17758e-47
-2.32712e-46
1.28729e-45
-7.07073e-45
3.85612e-44
-2.08787e-43
1.12225e-42
-5.98791e-42
3.1712e-41
-1.66686e-40
8.69492e-40
-4.50076e-39
2.31164e-38
-1.17796e-37
5.95491e-37
-2.98616e-36
1.48525e-35
-7.32649e-35
3.58388e-34
-1.73831e-33
8.35927e-33
-3.98502e-32
1.88305e-31
-8.81886e-31
4.09288e-30
-1.88216e-29
8.57509e-29
-3.87007e-28
1.72996e-27
-7.65828e-27
3.35691e-26
-1.45678e-25
6.25794e-25
-2.6606e-24
1.11935e-23
-4.65924e-23
1.91846e-22
-7.8126e-22
3.14604e-21
-1.25248e-20
4.92863e-20
-1.91663e-19
7.36396e-19
-2.79476e-18
1.04745e-17
-3.87588e-17
1.4156e-16
-5.10187e-16
1.81389e-15
-6.35995e-15
2.1985e-14
-7.49006e-14
2.5141e-13
-8.31115e-13
2.70493e-12
-8.66355e-12
2.72958e-11
-8.45595e-11
2.57449e-10
-7.69955e-10
2.26075e-09
-6.51339e-09
1.8402e-08
-5.09503e-08
1.38149e-07
-3.66561e-07
9.51013e-07
-2.41041e-06
5.96269e-06
-1.4381e-05
3.37782e-05
-7.71671e-05
0.000171226
-0.000368438
0.000767452
-0.00154439
0.00299554
-0.00558523
0.00997874
-0.0170184
0.0275761
-0.0422024
0.0605264
-0.0804807
0.0976562
-0.105382
0.0962773
-0.0656932
0.0163423
0.038372
-0.0761761
0.0757091
-0.0320096
-0.0322049
0.0732046
-0.0559374
-0.0104465
0.0674142
-0.0549157
-0.0196986
0.0719922
-0.0315571
-0.054521
0.0622018
0.029619
-0.0760332
-0.0133139
0.084062
0.0128538
-0.0925189
-0.0354063
0.0951404
0.0908037
-0.0575471
-0.164693
-0.0825757
0.171084
0.4754
0.724196
0.879808
0.957308
0.988248
0.997892
1.00001
1.00018
1.00008
1.00002
1
1
1
1
1
1
1
1
1
1
1
1
1
1
1
1
1
1
1
1
1
1
1
1
1
1
1
1
1
1
1
1
1
1
1
1
1
1
1
0.999999
1
0.999994
1.00001
0.999966
1.00008
0.999829
1.00037
0.999233
1.00154
0.997004
1.00559
0.990021
1.01702
0.972424
1.0422
0.939474
1.08048
0.902344
1.10538
0.903723
1.06569
0.983658
0.961628
1.07618
0.924291
1.03201
1.0322
0.926795
1.05594
1.01045
0.932586
1.05492
1.0197
0.928008
1.03156
1.05452
0.937798
0.970381
1.07603
1.01331
0.915938
0.987146
1.09252
1.03541
0.90486
0.909196
1.05755
1.16469
1.08258
0.828916
0.5246
0.275804
0.120192
0.042692
0.011752
0.00210817
-6.32932e-06
-0.000178465
-7.7812e-05
-1.92418e-05
-2.20451e-06
4.3592e-07
2.95464e-07
7.62221e-08
8.49173e-09
-1.44202e-09
-8.88899e-10
-1.92277e-10
-1.2431e-11
5.47706e-12
2.03736e-12
2.9715e-13
-9.5283e-15
-1.43828e-14
-3.09376e-15
-1.80415e-16
7.2614e-17
2.26635e-17
2.4204e-18
-2.49181e-19
-1.31318e-19
-1.87865e-20
3.3964e-22
6.35638e-22
1.11534e-22
2.59413e-24
-2.6592e-24
-5.50944e-25
-2.62696e-26
9.86449e-27
2.35795e-27
1.48907e-28
-3.31743e-29
-8.95505e-30
-6.5205e-31
1.03232e-31
3.06503e-32
2.39534e-33
-3.02712e-34
-9.55314e-35
-7.64199e-36
8.48003e-37
2.73021e-37
2.15475e-38
-2.28458e-39
-7.18591e-40
-5.41895e-41
5.91294e-42
1.74623e-42
1.22032e-43
-1.46048e-44
-3.92269e-45
-2.45995e-46
3.41226e-47
8.1483e-48
4.41573e-49
-7.47923e-50
-1.56467e-50
-6.96775e-52
1.52824e-52
2.77541e-53
9.38726e-55
-2.89876e-55
-4.54245e-56
-1.00054e-57
5.09136e-58
6.84911e-59
6.12308e-61
-8.26996e-61
-9.49301e-62
5.56221e-64
1.24168e-63
1.20563e-64
-2.78944e-66
-1.72323e-66
-1.39614e-67
6.17943e-69
2.21092e-69
1.46239e-70
-1.05012e-71
-2.62297e-72
-1.36588e-73
1.51842e-74
2.87767e-75
1.10545e-76
-1.94244e-77
-2.91909e-78
-7.22401e-80
2.24115e-80
2.73626e-81
2.89558e-83
-2.35831e-83
-2.36723e-84
1.11591e-86
2.27961e-86
1.8859e-87
-4.15833e-89
-2.03436e-89
-1.37814e-90
5.90779e-92
1.68235e-92
9.17482e-94
-6.39677e-95
-1.293e-95
-5.49553e-97
5.92043e-98
9.25766e-99
2.88846e-100
-4.88484e-101
-6.18741e-102
-1.25483e-103
3.66794e-104
3.86723e-105
3.65093e-107
-2.53699e-107
-2.2641e-108
3.61213e-111
1.62938e-110
1.24366e-111
-1.62908e-113
-9.77389e-114
-6.42019e-115
1.62721e-116
5.50126e-117
3.1207e-118
-1.20495e-119
-2.91674e-120
-1.43153e-121
7.60999e-123
1.46173e-123
6.21525e-125
-4.30024e-126
-6.94615e-127
-2.56412e-128
2.22385e-129
3.13918e-130
1.01064e-131
-1.06592e-132
-1.35299e-133
-3.8338e-135
4.77274e-136
5.57577e-137
1.41314e-138
-2.00668e-139
-2.20229e-140
-5.11848e-142
7.94925e-143
8.35376e-144
1.84226e-145
-2.97297e-146
-3.04803e-147
-6.6438e-149
1.05054e-149
1.07087e-150
2.40693e-152
-3.5056e-153
-3.62422e-154
-8.72553e-156
1.10229e-156
1.18113e-157
3.13769e-159
-3.25143e-160
-3.70251e-161
-1.10746e-162
8.92396e-164
1.1141e-164
3.79845e-166
-2.24515e-167
-3.20824e-168
-1.25559e-169
5.0246e-171
8.80388e-172
3.97386e-173
-9.29666e-175
-2.2886e-175
-1.19786e-176
1.07025e-178
5.58778e-179
3.42285e-180
1.30973e-182
-1.26461e-182
-9.22663e-184
-1.4223e-185
2.59343e-186
2.33257e-187
6.15974e-189
-4.60093e-190
-5.48625e-191
-2.05731e-192
6.20355e-194
1.18585e-194
5.89479e-196
-2.5442e-198
-2.30618e-198
-1.49795e-199
-2.09677e-201
3.86545e-202
3.40519e-203
9.96285e-205
-4.97248e-206
-6.88029e-207
-3.04443e-208
2.46874e-210
1.20515e-210
7.50622e-212
1.14994e-213
-1.71004e-214
-1.56742e-215
-5.22609e-217
1.52035e-218
2.76341e-219
1.42698e-220
9.94689e-223
-3.89608e-223
-3.0327e-224
-8.74522e-226
3.50202e-227
5.20185e-228
2.53778e-229
1.51854e-231
-6.81992e-232
-5.24903e-233
-1.58301e-234
4.96703e-236
8.31856e-237
4.34299e-238
5.42825e-240
-9.24804e-241
-8.15083e-242
-2.9948e-243
3.06287e-245
1.10336e-245
6.911e-247
1.65862e-248
-8.44983e-250
-1.08369e-250
-5.25276e-252
-6.04266e-254
1.08338e-254
9.4636e-256
3.65767e-257
-8.39837e-260
-1.09953e-259
-7.63887e-261
-2.37451e-262
4.44408e-264
9.85243e-265
5.84605e-266
1.46514e-267
-5.67533e-269
-8.15364e-270
-4.3245e-271
-8.83572e-273
5.47131e-274
6.38425e-275
3.13976e-276
5.43504e-278
-4.56842e-279
-4.79694e-280
-2.26288e-281
-3.59531e-283
3.4505e-284
3.48582e-285
1.62954e-286
2.64994e-288
-2.38853e-289
-2.45666e-290
-1.17379e-291
-2.1521e-293
1.50617e-294
1.67614e-295
8.42345e-297
1.83921e-298
-8.38507e-300
-1.09999e-300
-5.97367e-302
-1.57888e-303
3.73789e-305
6.85845e-306
4.14067e-307
1.31982e-308
-7.92957e-311
-3.97567e-311
-2.76798e-312
-1.05498e-313
-8.41747e-316
2.05421e-316
1.755e-317
7.96953e-319
1.54643e-320
-8.59674e-322
-1.08694e-322
-4.94066e-324
0
0
0
0
0
0
0
0
0
0
0
0
0
0
0
0
0
0
0
0
0
0
0
0
0
0
0
0
0
0
0
0
0
0
0
0
0
0
0
0
0
0
0
0
0
0
0
0
0
0
0
0
0
0
0
0
0
0
0
0
0
0
0
0
0
0
0
0
0
0
0
0
0
0
0
0
0
0
0
0
0
0
0
0
0
0
0
0
0
0
0
0
0
0
0
0
0
0
0
0
0
0
0
0
0
0
0
0
0
0
0
0
0
0
0
0
0
0
0
0
0
0
0
0
0
0
0
0
0
0
0
0
0
0
)
;

boundaryField
{
    sides
    {
        type            zeroGradient;
    }
    empty
    {
        type            empty;
    }
}


// ************************************************************************* //
