/*--------------------------------*- C++ -*----------------------------------*\
| =========                 |                                                 |
| \\      /  F ield         | OpenFOAM: The Open Source CFD Toolbox           |
|  \\    /   O peration     | Version:  2312                                  |
|   \\  /    A nd           | Website:  www.openfoam.com                      |
|    \\/     M anipulation  |                                                 |
\*---------------------------------------------------------------------------*/
FoamFile
{
    version     2.0;
    format      ascii;
    arch        "LSB;label=32;scalar=64";
    class       volScalarField;
    location    "2.6";
    object      T;
}
// * * * * * * * * * * * * * * * * * * * * * * * * * * * * * * * * * * * * * //

dimensions      [0 0 0 1 0 0 0];

internalField   nonuniform List<scalar> 
1000
(
0
0
0
0
0
0
0
0
0
0
0
0
0
0
0
0
0
0
0
0
0
0
0
0
0
0
0
0
0
0
0
0
0
0
0
0
0
0
0
0
0
0
0
0
0
0
0
0
0
0
0
0
0
0
0
0
0
0
0
0
0
0
0
0
0
0
0
0
0
0
0
0
0
0
0
0
0
0
0
0
0
0
0
0
0
0
0
0
0
0
0
0
0
0
0
0
0
0
0
0
0
0
0
0
0
0
0
0
0
0
0
0
0
0
0
0
0
0
0
0
0
0
0
0
0
0
0
0
0
0
0
0
0
0
0
0
0
0
0
0
0
0
0
0
0
0
0
0
0
0
0
0
0
0
0
0
0
0
0
0
0
0
0
0
0
0
0
0
0
0
0
0
0
0
0
0
0
0
0
0
0
0
0
0
0
0
0
0
0
0
0
0
0
0
0
0
0
0
0
0
0
0
0
0
0
0
0
0
0
0
0
0
0
0
0
0
0
0
0
0
0
0
0
0
0
0
0
0
0
0
0
0
0
0
0
0
0
0
0
0
0
0
0
0
0
0
0
0
0
0
0
0
0
0
0
0
0
0
0
0
0
0
0
0
0
0
0
0
0
0
0
0
0
0
0
0
0
0
0
0
0
0
0
0
0
0
0
0
0
0
0
0
0
0
0
0
0
0
0
0
0
0
0
0
0
0
0
0
0
0
0
0
0
0
0
0
0
0
0
0
0
0
0
0
0
0
0
0
0
0
0
0
0
0
0
0
0
0
0
0
0
0
0
0
0
0
0
0
0
0
0
0
0
0
0
0
0
0
0
0
0
0
0
0
0
0
0
0
0
0
0
0
0
0
0
0
0
0
0
0
0
0
0
0
0
0
0
0
0
0
0
0
0
0
0
0
0
0
0
0
0
0
0
0
0
0
0
0
0
0
0
0
0
0
0
0
0
0
0
0
0
0
0
0
0
0
0
0
0
0
0
0
0
0
0
0
0
0
0
0
0
0
0
0
0
0
0
0
0
0
5.69905e-75
9.48634e-73
7.8985e-71
4.38612e-69
1.82751e-67
6.09407e-66
1.69417e-64
4.03868e-63
8.42775e-62
1.56391e-60
2.61299e-59
3.97056e-58
5.53298e-57
7.1201e-56
8.51157e-55
9.50064e-54
9.94602e-53
9.8039e-52
9.13077e-51
8.05967e-50
6.76136e-49
5.40435e-48
4.12509e-47
3.01301e-46
2.10993e-45
1.41903e-44
9.18043e-44
5.72175e-43
3.44021e-42
1.99795e-41
1.12214e-40
6.10169e-40
3.21552e-39
1.6439e-38
8.1605e-38
3.93691e-37
1.84734e-36
8.43767e-36
3.75408e-35
1.62813e-34
6.88757e-34
2.84384e-33
1.14675e-32
4.51852e-32
1.74072e-31
6.55979e-31
2.41932e-30
8.73665e-30
3.09059e-29
1.07145e-28
3.64183e-28
1.2141e-27
3.97143e-27
1.27514e-26
4.02013e-26
1.24493e-25
3.78805e-25
1.1329e-24
3.33123e-24
9.63358e-24
2.74071e-23
7.67281e-23
2.11435e-22
5.73647e-22
1.53274e-21
4.03415e-21
1.04617e-20
2.67372e-20
6.73586e-20
1.67312e-19
4.09835e-19
9.90213e-19
2.36033e-18
5.5517e-18
1.28875e-17
2.95314e-17
6.68109e-17
1.49257e-16
3.29323e-16
7.17758e-16
1.54552e-15
3.28838e-15
6.91457e-15
1.43711e-14
2.95271e-14
5.99816e-14
1.20488e-13
2.39365e-13
4.70351e-13
9.14297e-13
1.75838e-12
3.34619e-12
6.3017e-12
1.17458e-11
2.16711e-11
3.95822e-11
7.15797e-11
1.28173e-10
2.27286e-10
3.99172e-10
6.94395e-10
1.19662e-09
2.04292e-09
3.45572e-09
5.7924e-09
9.62171e-09
1.58402e-08
2.5848e-08
4.18107e-08
6.70475e-08
1.06598e-07
1.68046e-07
2.62697e-07
4.07255e-07
6.26178e-07
9.54961e-07
1.44466e-06
2.16805e-06
3.22801e-06
4.76863e-06
6.99005e-06
1.01678e-05
1.4678e-05
2.10295e-05
2.99054e-05
4.22142e-05
5.91543e-05
8.22932e-05
0.000113664
0.000155881
0.000212277
0.000287067
0.000385536
0.000514253
0.000681313
0.000896613
0.00117214
0.0015223
0.00196425
0.00251823
0.00320794
0.00406084
0.00510851
0.0063869
0.00793654
0.00980272
0.0120355
0.0146897
0.0178247
0.0215041
0.0257952
0.0307682
0.0364959
0.0430519
0.05051
0.0589427
0.0684197
0.0790063
0.0907617
0.103738
0.117977
0.13351
0.150357
0.168524
0.188
0.208762
0.230769
0.253964
0.278275
0.303615
0.329879
0.356954
0.384711
0.413013
0.441717
0.47067
0.499721
0.528716
0.557501
0.58593
0.61386
0.64116
0.667705
0.693385
0.718102
0.741772
0.764326
0.785709
0.805881
0.824817
0.842505
0.858947
0.874157
0.888159
0.900987
0.912684
0.923298
0.932885
0.941503
0.949214
0.956081
0.962168
0.96754
0.972258
0.976384
0.979975
0.983087
0.985771
0.988076
0.990047
0.991724
0.993146
0.994346
0.995353
0.996196
0.996898
0.99748
0.99796
0.998354
0.998677
0.998938
0.99915
0.999318
0.999452
0.999555
0.999632
0.999686
0.999719
0.999732
0.999725
0.999696
0.999643
0.999561
0.999445
0.999288
0.99908
0.99881
0.998464
0.998026
0.997474
0.996787
0.995935
0.994889
0.993611
0.992062
0.990196
0.987964
0.98531
0.982175
0.978496
0.974205
0.969232
0.963504
0.956948
0.94949
0.941057
0.93158
0.920994
0.909238
0.896262
0.882023
0.86649
0.849643
0.831476
0.812
0.791238
0.769231
0.746036
0.721725
0.696385
0.670121
0.643046
0.615289
0.586987
0.558283
0.52933
0.500279
0.471284
0.442499
0.41407
0.38614
0.35884
0.332295
0.306615
0.281898
0.258228
0.235674
0.214291
0.194119
0.175183
0.157495
0.141053
0.125843
0.111841
0.0990128
0.0873161
0.0767018
0.0671152
0.0584973
0.0507865
0.0439193
0.0378317
0.03246
0.0277417
0.023616
0.020025
0.0169134
0.0142292
0.0119241
0.00995322
0.00827561
0.00685387
0.00565423
0.0046464
0.00380335
0.00310118
0.00251884
0.00203795
0.0016425
0.00131869
0.00105465
0.00084025
0.000666876
0.000527257
0.000415285
0.000325852
0.000254712
0.000198353
0.000153884
0.000118937
9.15825e-05
7.02569e-05
5.3697e-05
4.08884e-05
3.10203e-05
2.34472e-05
1.76579e-05
1.32495e-05
9.90545e-06
7.37853e-06
5.47636e-06
4.0499e-06
2.98424e-06
2.19112e-06
1.60304e-06
1.16863e-06
8.48916e-07
6.14493e-07
4.43239e-07
3.18591e-07
2.28196e-07
1.6288e-07
1.15856e-07
8.21226e-08
5.80108e-08
4.08377e-08
2.865e-08
2.00311e-08
1.39575e-08
9.69252e-09
6.70809e-09
4.62699e-09
3.18084e-09
2.17938e-09
1.48826e-09
1.01294e-09
6.87146e-10
4.64607e-10
3.13109e-10
2.10322e-10
1.40818e-10
9.39772e-11
6.25144e-11
4.14512e-11
2.73967e-11
1.80497e-11
1.18537e-11
7.75995e-12
5.06393e-12
3.29416e-12
2.13617e-12
1.38092e-12
8.899e-13
5.71694e-13
3.66133e-13
2.33761e-13
1.48788e-13
9.4413e-14
5.97266e-14
3.76686e-14
2.3685e-14
1.48475e-14
9.27946e-15
5.78213e-15
3.59213e-15
2.22495e-15
1.37404e-15
8.46036e-16
5.19394e-16
3.17927e-16
1.94036e-16
1.18078e-16
7.16461e-17
4.33465e-17
2.61493e-17
1.57294e-17
9.43449e-18
5.64261e-18
3.36514e-18
2.0012e-18
1.18672e-18
7.01742e-19
4.13794e-19
2.43317e-19
1.42675e-19
8.34278e-20
4.86484e-20
2.82894e-20
1.64051e-20
9.48728e-21
5.47159e-21
3.14701e-21
1.8051e-21
1.03258e-21
5.89079e-22
3.35159e-22
1.90179e-22
1.07624e-22
6.0743e-23
3.41923e-23
1.91958e-23
1.07483e-23
6.00239e-24
3.34325e-24
1.85728e-24
1.02908e-24
5.68715e-25
3.13482e-25
1.72348e-25
9.45109e-26
5.16941e-26
2.82025e-26
1.53471e-26
8.33026e-27
4.51013e-27
2.43569e-27
1.31208e-27
7.05026e-28
3.77888e-28
2.02039e-28
1.07752e-28
5.73245e-29
3.04214e-29
1.61045e-29
8.50443e-30
4.48001e-30
2.35424e-30
1.23414e-30
6.45393e-31
3.36691e-31
1.75222e-31
9.09707e-32
4.71163e-32
2.43446e-32
1.25486e-32
6.45294e-33
3.31046e-33
1.69431e-33
8.65114e-34
4.4069e-34
2.23962e-34
1.13554e-34
5.74403e-35
2.89883e-35
1.45956e-35
7.33197e-36
3.67467e-36
1.83746e-36
9.16694e-37
4.56288e-37
2.26603e-37
1.12281e-37
5.55092e-38
2.73806e-38
1.34755e-38
6.61717e-39
3.24211e-39
1.58495e-39
7.73101e-40
3.76265e-40
1.82722e-40
8.85383e-41
4.28071e-41
2.06514e-41
9.94104e-42
4.77494e-42
2.28855e-42
1.09448e-42
5.22301e-43
2.48711e-43
1.18178e-43
5.60333e-44
2.65111e-44
1.25165e-44
5.89676e-45
2.7722e-45
1.30052e-45
6.08825e-46
2.84417e-46
1.32589e-46
6.16809e-47
2.86344e-47
1.32655e-47
6.13275e-48
2.82937e-48
1.30265e-48
5.98511e-49
2.74426e-49
1.25571e-49
5.73412e-50
2.61312e-50
1.18842e-50
5.3939e-51
2.44319e-51
1.10443e-51
4.98247e-52
2.24327e-52
1.00798e-52
4.52016e-53
2.02299e-53
9.03591e-54
4.02802e-54
1.79207e-54
7.95726e-55
3.5263e-55
1.55965e-55
6.8847e-56
3.03318e-56
1.33373e-56
5.85323e-57
2.5638e-57
1.12082e-57
4.89051e-58
2.1298e-58
9.25748e-59
4.01623e-59
1.73907e-59
7.51611e-60
3.24224e-60
1.39598e-60
)
;

boundaryField
{
    sides
    {
        type            zeroGradient;
    }
    empty
    {
        type            empty;
    }
}


// ************************************************************************* //
