/*--------------------------------*- C++ -*----------------------------------*\
| =========                 |                                                 |
| \\      /  F ield         | OpenFOAM: The Open Source CFD Toolbox           |
|  \\    /   O peration     | Version:  2312                                  |
|   \\  /    A nd           | Website:  www.openfoam.com                      |
|    \\/     M anipulation  |                                                 |
\*---------------------------------------------------------------------------*/
FoamFile
{
    version     2.0;
    format      ascii;
    arch        "LSB;label=32;scalar=64";
    class       volScalarField;
    location    "4.6";
    object      T;
}
// * * * * * * * * * * * * * * * * * * * * * * * * * * * * * * * * * * * * * //

dimensions      [0 0 0 1 0 0 0];

internalField   nonuniform List<scalar> 
1000
(
1.3218e-286
-7.424e-287
8.49576e-286
-4.17328e-285
2.22277e-284
-1.16581e-283
6.10045e-283
-3.17932e-282
1.65057e-281
-8.53573e-281
4.39689e-280
-2.256e-279
1.15295e-278
-5.8688e-278
2.97541e-277
-1.50242e-276
7.55565e-276
-3.78424e-275
1.88756e-274
-9.37616e-274
4.63812e-273
-2.28476e-272
1.12074e-271
-5.47429e-271
2.66253e-270
-1.28941e-269
6.2174e-269
-2.98491e-268
1.42674e-267
-6.7895e-267
3.21659e-266
-1.51706e-265
7.12275e-265
-3.329e-264
1.54876e-263
-7.17212e-263
3.30586e-262
-1.51663e-261
6.92497e-261
-3.14689e-260
1.42315e-259
-6.40491e-259
2.86844e-258
-1.2783e-257
5.66827e-257
-2.50083e-256
1.09777e-255
-4.79417e-255
2.08289e-254
-9.00223e-254
3.87027e-253
-1.65507e-252
7.03966e-252
-2.97799e-251
1.25286e-250
-5.24167e-250
2.18068e-249
-9.02077e-249
3.71018e-248
-1.51711e-247
6.16707e-247
-2.492e-246
1.0009e-245
-3.9955e-245
1.5851e-244
-6.24895e-244
2.44785e-243
-9.52687e-243
3.68349e-242
-1.41471e-241
5.39673e-241
-2.04455e-240
7.69167e-240
-2.87305e-239
1.0654e-238
-3.92162e-238
1.43266e-237
-5.19368e-237
1.86808e-236
-6.66542e-236
2.3588e-235
-8.27759e-235
2.87987e-234
-9.9312e-234
3.39379e-233
-1.14897e-232
3.85255e-232
-1.279e-231
4.20273e-231
-1.36636e-230
4.39331e-230
-1.39642e-229
4.38539e-229
-1.35995e-228
4.16164e-228
-1.25576e-227
3.73304e-227
-1.09213e-226
3.14051e-226
-8.86281e-226
2.44997e-225
-6.61774e-225
1.7411e-224
-4.4421e-224
1.09207e-223
-2.56194e-223
5.64163e-223
-1.12974e-222
1.90539e-222
-1.99674e-222
-2.75706e-222
2.70926e-221
-1.16277e-220
3.95525e-220
-1.17911e-219
3.1734e-219
-7.73544e-219
1.67638e-218
-3.04077e-218
3.66208e-218
2.417e-218
-3.59788e-217
1.57455e-216
-5.18556e-216
1.44281e-215
-3.46308e-215
6.9575e-215
-1.01626e-214
2.18993e-215
5.66626e-214
-2.80862e-213
9.43534e-213
-2.56138e-212
5.72898e-212
-9.77781e-212
7.65806e-212
2.87831e-211
-1.8252e-210
6.48108e-210
-1.7669e-209
3.80949e-209
-5.75031e-209
1.15265e-209
3.23014e-208
-1.52686e-207
4.73653e-207
-1.1214e-206
1.91109e-206
-1.19171e-206
-7.13654e-206
3.91711e-205
-1.25751e-204
2.96664e-204
-4.80234e-204
1.69405e-204
2.36865e-203
-1.132e-202
3.34279e-202
-7.03785e-202
8.54669e-202
8.89239e-202
-9.2695e-201
3.349e-200
-8.16385e-200
1.28045e-199
-1.26209e-200
-7.67461e-199
3.27039e-198
-8.6365e-198
1.47449e-197
-5.49417e-198
-7.15515e-197
3.27168e-196
-8.75327e-196
1.46625e-195
-3.5621e-196
-7.88317e-195
3.38743e-194
-8.53371e-194
1.25003e-193
4.46891e-194
-9.67738e-193
3.52782e-192
-7.72459e-192
7.91758e-192
1.79007e-191
-1.19353e-190
3.48546e-190
-5.90928e-190
7.50183e-191
3.42627e-189
-1.3515e-188
2.97635e-188
-2.77384e-188
-8.2009e-188
4.8106e-187
-1.2839e-186
1.7711e-186
1.45128e-186
-1.64051e-185
5.12798e-185
-8.56665e-185
-6.53633e-186
5.56374e-184
-1.9733e-183
3.66086e-183
-9.07355e-184
-1.94414e-182
7.48743e-182
-1.45367e-181
5.08097e-182
7.1909e-181
-2.83398e-180
5.45815e-180
-1.51279e-180
-2.83657e-179
1.07105e-178
-1.93402e-178
3.52548e-180
1.17475e-177
-4.00485e-177
6.32571e-177
3.24512e-177
-4.9552e-176
1.45364e-175
-1.79988e-175
-2.91896e-175
2.05779e-174
-4.96538e-174
3.67806e-174
1.82429e-173
-8.13485e-173
1.51217e-172
8.58416e-174
-9.43775e-172
2.94702e-171
-3.61329e-171
-6.43435e-171
4.19962e-170
-9.22464e-170
3.33939e-170
4.52444e-169
-1.59398e-168
2.16392e-168
2.97716e-168
-2.20323e-167
4.87309e-167
-1.45408e-167
-2.48297e-166
8.26983e-166
-9.68506e-166
-2.0808e-165
1.18939e-164
-2.23699e-164
-5.76905e-165
1.49876e-163
-3.97627e-163
2.49691e-163
1.64839e-162
-6.16274e-162
7.645e-162
1.50005e-161
-8.72102e-161
1.54114e-160
8.82436e-161
-1.1528e-159
2.64089e-159
-4.13071e-160
-1.44248e-158
4.13829e-158
-2.64096e-158
-1.7239e-157
6.13262e-157
-6.11566e-157
-1.98227e-156
8.76589e-156
-1.12312e-155
-2.21174e-155
1.22502e-154
-1.84845e-154
-2.42671e-154
1.69073e-153
-2.84959e-153
-2.68125e-153
2.3224e-152
-4.20124e-152
-3.10206e-152
3.19257e-151
-5.98655e-151
-3.94248e-151
4.40661e-150
-8.28315e-150
-5.66744e-150
6.11214e-149
-1.11306e-148
-9.0799e-149
8.50543e-148
-1.44658e-147
-1.54952e-147
1.18276e-146
-1.8007e-146
-2.69558e-146
1.6337e-145
-2.10647e-145
-4.64453e-145
2.22353e-144
-2.22604e-144
-7.79956e-144
2.95149e-143
-1.91564e-143
-1.26475e-142
3.76885e-142
-7.85711e-143
-1.96693e-141
4.53686e-141
1.72504e-141
-2.91308e-140
4.97074e-140
6.32702e-140
-4.06936e-139
4.58032e-139
1.37511e-138
-5.28102e-138
2.63725e-138
2.44373e-137
-6.19511e-137
-1.77462e-137
3.79677e-136
-6.18926e-136
-9.53917e-136
5.22385e-135
-4.35969e-135
-2.1022e-134
6.25347e-134
3.42805e-135
-3.527e-133
6.09839e-133
8.71807e-133
-4.90081e-132
3.72651e-132
2.05876e-131
-5.58544e-131
-1.82653e-131
3.38042e-130
-4.65961e-130
-1.08132e-129
4.33801e-129
-1.16835e-129
-2.1851e-128
4.15322e-128
5.31414e-128
-3.10736e-127
1.97508e-127
1.38572e-126
-3.21096e-126
-2.6279e-126
2.14227e-125
-1.79033e-125
-8.95027e-125
2.28966e-124
1.49683e-124
-1.45451e-123
1.27861e-123
6.02997e-123
-1.53835e-122
-1.10108e-122
9.797e-122
-7.48886e-122
-4.24519e-121
9.71347e-121
9.84211e-121
-6.49449e-120
3.19337e-120
3.0582e-119
-5.60582e-119
-9.22946e-119
4.13916e-118
-2.04795e-119
-2.17546e-117
2.74039e-117
8.26348e-117
-2.43036e-116
-1.53172e-116
1.46284e-115
-8.63796e-116
-6.746e-115
1.20945e-114
2.21851e-114
-8.78667e-114
-2.19169e-114
4.84878e-113
-3.95039e-113
-2.13139e-112
4.25488e-112
6.84164e-112
-2.90746e-111
-7.03805e-112
1.58487e-110
-1.15526e-110
-7.1545e-110
1.26903e-109
2.54713e-109
-8.89767e-109
-5.23865e-109
5.06928e-108
-1.69553e-108
-2.4743e-107
2.96105e-107
1.03012e-106
-2.3669e-106
-3.39779e-106
1.48547e-105
5.89002e-106
-8.07063e-105
3.05194e-105
3.9057e-104
-4.39704e-104
-1.68145e-103
3.4213e-103
6.21903e-103
-2.16158e-102
-1.73327e-102
1.21076e-101
1.09989e-102
-6.2074e-101
3.22937e-101
2.94778e-100
-3.35432e-100
-1.29656e-99
2.41577e-99
5.2136e-99
-1.49346e-98
-1.84427e-98
8.43454e-98
5.08171e-98
-4.47079e-97
-4.48204e-98
2.25564e-96
-7.75482e-97
-1.0919e-95
8.42244e-96
5.09431e-95
-6.18421e-95
-2.29576e-94
3.9092e-94
9.99497e-94
-2.27583e-93
-4.19559e-93
1.25641e-92
1.68977e-92
-6.68176e-92
-6.46618e-92
3.45658e-91
2.30571e-91
-1.75098e-90
-7.33542e-91
8.72798e-90
1.83215e-90
-4.29726e-89
-1.38816e-90
2.09628e-88
-2.47677e-89
-1.01576e-87
2.47349e-88
4.89928e-87
-1.6876e-87
-2.35629e-86
9.91588e-87
1.13154e-85
-5.34132e-86
-5.43114e-85
2.70164e-85
2.60702e-84
-1.29451e-84
-1.25173e-83
5.87366e-84
6.01028e-83
-2.49905e-83
-2.88413e-82
9.71433e-83
1.38172e-81
-3.22062e-82
-6.59926e-81
6.94691e-82
3.13655e-80
1.45591e-81
-1.48024e-79
-3.2955e-80
6.91795e-79
2.94354e-79
-3.19145e-78
-2.10439e-78
1.44748e-77
1.34953e-77
-6.42071e-77
-8.08047e-77
2.76551e-76
4.60012e-76
-1.1443e-75
-2.51261e-75
4.4687e-75
1.3226e-74
-1.5919e-74
-6.7199e-74
4.75826e-74
3.29341e-73
-8.3784e-74
-1.55263e-72
-2.92485e-73
7.00274e-72
4.57249e-72
-2.99292e-71
-3.54727e-71
1.19149e-70
2.22782e-70
-4.26832e-70
-1.24293e-69
1.26098e-69
6.35132e-69
-2.08824e-69
-2.99943e-68
-8.43872e-69
1.304e-67
1.19037e-67
-5.12343e-67
-8.66375e-67
1.7334e-66
5.05007e-66
-4.3277e-66
-2.5614e-65
1.26101e-66
1.15281e-64
7.85977e-65
-4.55015e-64
-6.93039e-64
1.48933e-63
4.23436e-63
-3.24625e-63
-2.13384e-62
-3.06233e-63
9.15966e-62
9.04087e-62
-3.25944e-61
-6.78779e-61
8.3535e-61
3.71565e-60
-3.10008e-61
-1.65162e-59
-1.39128e-59
5.89297e-59
1.16415e-58
-1.44217e-58
-6.45286e-58
-1.04462e-59
2.78114e-57
2.84969e-57
-9.08926e-57
-2.1659e-56
1.64762e-56
1.10434e-55
4.7312e-56
-4.21854e-55
-6.63089e-55
1.06929e-54
4.02089e-54
-1.7215e-56
-1.71147e-53
-1.96404e-53
4.96924e-53
1.41553e-52
-4.19208e-53
-6.47647e-52
-6.07844e-52
1.98144e-51
5.00071e-51
-2.07639e-51
-2.35583e-50
-2.12484e-50
7.11216e-50
1.80633e-49
-6.01568e-50
-8.30048e-49
-8.53983e-49
2.29376e-48
6.63676e-48
-4.15687e-49
-2.79426e-47
-3.70854e-47
6.29463e-47
2.41095e-46
8.5287e-47
-8.64006e-46
-1.5987e-45
1.19147e-45
8.26158e-45
7.40192e-45
-2.24722e-44
-6.38253e-44
-5.93207e-45
2.48696e-43
4.07046e-43
-3.69261e-43
-2.2132e-42
-2.00535e-42
5.6816e-42
1.71012e-41
4.85842e-42
-6.02669e-41
-1.1777e-40
4.56068e-41
5.4245e-40
7.24381e-40
-9.26407e-40
-4.4237e-39
-3.88509e-39
1.0726e-38
3.37532e-38
1.66315e-38
-1.02872e-37
-2.45986e-37
-3.50831e-38
8.93962e-37
1.74054e-36
-3.20051e-37
-7.31314e-36
-1.21401e-35
5.83721e-36
5.75027e-35
8.47301e-35
-6.15122e-35
-4.40087e-34
-6.00173e-34
5.31357e-34
3.30283e-33
4.36214e-33
-4.03896e-33
-2.43877e-32
-3.26877e-32
2.72508e-32
1.77064e-31
2.5175e-31
-1.56905e-31
-1.25811e-30
-1.97257e-30
6.50742e-31
8.66575e-30
1.54974e-29
1.39929e-31
-5.69309e-29
-1.20091e-28
-4.42254e-29
3.46817e-28
9.02015e-28
6.67433e-28
-1.85027e-27
-6.43878e-27
-7.30737e-27
7.33118e-27
4.25535e-26
6.76635e-26
-2.79422e-27
-2.49293e-25
-5.49599e-25
-3.48275e-25
1.17161e-24
3.90869e-24
4.78458e-24
-2.84925e-24
-2.35025e-23
-4.45148e-23
-2.1116e-23
1.06829e-22
3.25507e-22
3.96589e-22
-1.92548e-22
-1.83916e-21
-3.74224e-21
-2.64811e-21
6.51514e-21
2.49575e-20
3.85424e-20
8.96493e-21
-1.097e-19
-3.01938e-19
-3.76964e-19
8.3915e-20
1.48605e-18
3.45648e-18
3.73235e-18
-2.13374e-18
-1.79371e-17
-3.87783e-17
-3.99074e-17
2.58352e-17
1.99139e-16
4.3273e-16
4.74323e-16
-1.77532e-16
-2.02121e-15
-4.76352e-15
-6.06024e-15
-6.79084e-16
1.78056e-14
5.00084e-14
7.75065e-14
4.92802e-14
-1.14077e-13
-4.68247e-13
-9.19019e-13
-1.04099e-12
3.26381e-14
3.36869e-12
9.25678e-12
1.52725e-11
1.38756e-11
-8.49465e-12
-6.69284e-11
-1.63123e-10
-2.5723e-10
-2.32804e-10
1.20197e-10
1.05358e-09
2.66895e-09
4.52708e-09
5.0883e-09
1.22158e-09
-1.16409e-08
-3.77303e-08
-7.63507e-08
-1.13653e-07
-1.1155e-07
1.99874e-09
3.3152e-07
9.84497e-07
1.99079e-06
3.1476e-06
3.77986e-06
2.44223e-06
-3.34047e-06
-1.70861e-05
-4.27614e-05
-8.30425e-05
-0.000135723
-0.000187446
-0.00020397
-0.000116373
0.000196854
0.000931162
0.00237896
0.00495139
0.00919473
0.0157966
0.0255771
0.0394596
0.0584202
0.0834139
0.115283
0.154654
0.201835
0.256722
0.31874
0.386819
0.459414
0.534588
0.610133
0.683731
0.753135
0.816349
0.871786
0.918385
0.955673
0.983766
1.00331
1.01537
1.0213
1.02259
1.02071
1.01698
1.0125
1.0081
1.00431
1.00142
0.999485
0.998418
0.998039
0.998135
0.998501
0.998968
0.999416
0.999776
1.00002
1.00015
1.0002
1.00019
1.00014
1.00009
1.00004
1.00001
0.999987
0.999979
0.99998
0.999985
0.999991
0.999996
1
1
1
1
1
1
1
1
1
1
1
1
1
1
1
1
1
1
1
1
1
1
1
1
1
1
1
1
1
0.999999
0.999998
0.999997
0.999996
0.999998
1
1.00002
1.00004
1.00008
1.00014
1.00019
1.0002
1.00012
0.999803
0.999069
0.997621
0.995049
0.990805
0.984203
0.974423
0.96054
0.94158
0.916586
0.884717
0.845346
0.798165
0.743278
0.68126
0.613181
0.540586
0.465412
0.389867
0.316269
0.246865
0.183651
0.128214
0.081615
0.0443265
0.0162337
-0.00330911
-0.0153709
-0.0213046
-0.0225943
-0.0207083
-0.0169755
-0.0124968
-0.00809608
-0.00431157
-0.00142003
0.000514976
0.00158239
0.00196123
0.00186501
0.00149889
0.00103188
0.000583752
0.000224064
-2.044e-05
-0.000154008
-0.000199105
-0.000185219
-0.000140641
-8.76327e-05
-4.06199e-05
-6.60641e-06
1.31153e-05
2.08061e-05
2.02848e-05
1.54413e-05
9.36424e-06
4.01444e-06
2.888e-07
-1.70538e-06
-2.31707e-06
-2.06089e-06
-1.41818e-06
-7.36128e-07
-2.05536e-07
1.12812e-07
2.41668e-07
2.41552e-07
1.7694e-07
9.74961e-08
3.21736e-08
-8.3592e-09
-2.55677e-08
-2.66182e-08
-1.95455e-08
-1.0571e-08
-3.26406e-09
1.1275e-09
2.8494e-09
2.80187e-09
1.93725e-09
9.50836e-10
2.07141e-10
-1.96562e-10
-3.19044e-10
-2.74488e-10
-1.67697e-10
-6.64075e-11
1.22462e-13
2.96563e-11
3.30714e-11
2.37321e-11
1.1799e-11
2.66455e-12
-2.199e-12
-3.56318e-12
-2.94214e-12
-1.67077e-12
-5.53141e-13
1.13796e-13
3.56803e-13
3.34387e-13
2.07148e-13
8.04771e-14
-1.00807e-15
-3.4468e-14
-3.58684e-14
-2.34359e-14
-9.79078e-15
-6.27649e-16
3.33118e-15
3.70049e-15
2.47072e-15
1.05097e-15
8.67973e-17
-3.30639e-16
-3.70783e-16
-2.44989e-16
-1.01315e-16
-5.78658e-18
3.3841e-17
3.61107e-17
2.28633e-17
8.75041e-18
-1.4562e-19
-3.50502e-18
-3.39454e-18
-1.99435e-18
-6.61063e-19
1.10409e-19
3.56672e-19
3.04109e-19
1.6018e-19
4.07607e-20
-2.04351e-20
-3.46622e-20
-2.55271e-20
-1.15278e-20
-1.57178e-21
2.72655e-21
3.14272e-21
1.9642e-21
7.03892e-22
-5.03917e-23
-2.99823e-22
-2.60441e-22
-1.34205e-22
-3.12988e-23
1.87552e-23
2.82775e-23
1.92788e-23
7.69347e-24
1.64895e-25
-2.3606e-24
)
;

boundaryField
{
    sides
    {
        type            zeroGradient;
    }
    empty
    {
        type            empty;
    }
}


// ************************************************************************* //
