/*--------------------------------*- C++ -*----------------------------------*\
| =========                 |                                                 |
| \\      /  F ield         | OpenFOAM: The Open Source CFD Toolbox           |
|  \\    /   O peration     | Version:  2312                                  |
|   \\  /    A nd           | Website:  www.openfoam.com                      |
|    \\/     M anipulation  |                                                 |
\*---------------------------------------------------------------------------*/
FoamFile
{
    version     2.0;
    format      ascii;
    arch        "LSB;label=32;scalar=64";
    class       volScalarField;
    location    "4.1";
    object      T;
}
// * * * * * * * * * * * * * * * * * * * * * * * * * * * * * * * * * * * * * //

dimensions      [0 0 0 1 0 0 0];

internalField   nonuniform List<scalar> 
1000
(
7.00319e-07
7.01559e-07
7.04972e-07
7.10566e-07
7.18356e-07
7.28363e-07
7.40613e-07
7.55139e-07
7.71976e-07
7.91171e-07
8.12773e-07
8.36837e-07
8.63427e-07
8.92612e-07
9.24466e-07
9.59073e-07
9.96521e-07
1.03691e-06
1.08033e-06
1.12691e-06
1.17676e-06
1.23e-06
1.28678e-06
1.34724e-06
1.41152e-06
1.47979e-06
1.55222e-06
1.62899e-06
1.71029e-06
1.79632e-06
1.88729e-06
1.98344e-06
2.08498e-06
2.19217e-06
2.30527e-06
2.42454e-06
2.55029e-06
2.6828e-06
2.8224e-06
2.96941e-06
3.12418e-06
3.28707e-06
3.45847e-06
3.63878e-06
3.8284e-06
4.02778e-06
4.23738e-06
4.45767e-06
4.68915e-06
4.93234e-06
5.1878e-06
5.4561e-06
5.73782e-06
6.0336e-06
6.34409e-06
6.66996e-06
7.01192e-06
7.37073e-06
7.74714e-06
8.14198e-06
8.55608e-06
8.99031e-06
9.44561e-06
9.92292e-06
1.04232e-05
1.09476e-05
1.14971e-05
1.20729e-05
1.26761e-05
1.3308e-05
1.39698e-05
1.46629e-05
1.53886e-05
1.61485e-05
1.69439e-05
1.77765e-05
1.8648e-05
1.95599e-05
2.0514e-05
2.15122e-05
2.25565e-05
2.36487e-05
2.47909e-05
2.59853e-05
2.72341e-05
2.85397e-05
2.99044e-05
3.13307e-05
3.28212e-05
3.43788e-05
3.6006e-05
3.77059e-05
3.94815e-05
4.13359e-05
4.32724e-05
4.52944e-05
4.74054e-05
4.9609e-05
5.19091e-05
5.43095e-05
5.68143e-05
5.94277e-05
6.21542e-05
6.49982e-05
6.79645e-05
7.10579e-05
7.42835e-05
7.76465e-05
8.11523e-05
8.48067e-05
8.86153e-05
9.25843e-05
9.67198e-05
0.000101028
0.000105517
0.000110191
0.00011506
0.00012013
0.000125409
0.000130904
0.000136625
0.000142579
0.000148775
0.000155223
0.000161931
0.000168909
0.000176168
0.000183718
0.000191569
0.000199733
0.00020822
0.000217043
0.000226214
0.000235744
0.000245648
0.000255939
0.000266629
0.000277735
0.000289269
0.000301247
0.000313686
0.0003266
0.000340006
0.000353922
0.000368365
0.000383353
0.000398905
0.00041504
0.000431778
0.000449139
0.000467144
0.000485815
0.000505174
0.000525244
0.000546048
0.000567611
0.000589957
0.000613112
0.000637103
0.000661956
0.000687699
0.000714362
0.000741972
0.000770561
0.00080016
0.000830799
0.000862513
0.000895334
0.000929297
0.000964438
0.00100079
0.0010384
0.00107729
0.00111751
0.0011591
0.00120211
0.00124656
0.00129251
0.00133999
0.00138907
0.00143977
0.00149215
0.00154627
0.00160216
0.00165988
0.00171948
0.00178102
0.00184455
0.00191012
0.0019778
0.00204765
0.00211971
0.00219406
0.00227076
0.00234987
0.00243146
0.00251559
0.00260234
0.00269177
0.00278395
0.00287896
0.00297687
0.00307776
0.0031817
0.00328878
0.00339907
0.00351266
0.00362963
0.00375006
0.00387405
0.00400168
0.00413304
0.00426823
0.00440733
0.00455045
0.00469768
0.00484912
0.00500487
0.00516503
0.0053297
0.005499
0.00567303
0.0058519
0.00603573
0.00622461
0.00641867
0.00661803
0.00682281
0.00703311
0.00724908
0.00747082
0.00769847
0.00793215
0.008172
0.00841813
0.0086707
0.00892982
0.00919564
0.0094683
0.00974793
0.0100347
0.0103287
0.0106301
0.0109391
0.0112557
0.0115802
0.0119128
0.0122534
0.0126024
0.0129599
0.0133259
0.0137008
0.0140846
0.0144775
0.0148797
0.0152913
0.0157125
0.0161435
0.0165844
0.0170355
0.0174968
0.0179686
0.018451
0.0189442
0.0194484
0.0199638
0.0204905
0.0210287
0.0215786
0.0221403
0.0227141
0.0233002
0.0238987
0.0245097
0.0251336
0.0257704
0.0264204
0.0270837
0.0277605
0.028451
0.0291554
0.0298738
0.0306065
0.0313536
0.0321154
0.0328919
0.0336834
0.0344901
0.0353121
0.0361496
0.0370028
0.0378718
0.0387569
0.0396582
0.0405759
0.0415102
0.0424611
0.043429
0.0444139
0.0454161
0.0464356
0.0474727
0.0485275
0.0496001
0.0506908
0.0517996
0.0529266
0.0540722
0.0552363
0.0564191
0.0576208
0.0588415
0.0600812
0.0613403
0.0626186
0.0639164
0.0652338
0.0665709
0.0679277
0.0693044
0.0707011
0.0721179
0.0735548
0.0750119
0.0764893
0.077987
0.0795052
0.0810438
0.0826029
0.0841827
0.085783
0.0874039
0.0890455
0.0907078
0.0923908
0.0940944
0.0958188
0.0975638
0.0993295
0.101116
0.102923
0.10475
0.106598
0.108467
0.110356
0.112265
0.114195
0.116145
0.118115
0.120104
0.122114
0.124144
0.126193
0.128262
0.13035
0.132457
0.134583
0.136729
0.138893
0.141075
0.143276
0.145495
0.147732
0.149986
0.152258
0.154547
0.156853
0.159176
0.161515
0.16387
0.166242
0.168628
0.17103
0.173447
0.175879
0.178324
0.180784
0.183257
0.185743
0.188242
0.190754
0.193277
0.195813
0.198359
0.200916
0.203484
0.206061
0.208648
0.211244
0.213849
0.216462
0.219082
0.221709
0.224343
0.226984
0.229629
0.23228
0.234936
0.237595
0.240258
0.242924
0.245592
0.248262
0.250933
0.253605
0.256277
0.258948
0.261618
0.264287
0.266953
0.269616
0.272275
0.274931
0.277581
0.280227
0.282866
0.285498
0.288123
0.29074
0.293348
0.295947
0.298536
0.301114
0.303681
0.306236
0.308778
0.311308
0.313823
0.316323
0.318808
0.321277
0.32373
0.326165
0.328583
0.330981
0.333361
0.33572
0.338059
0.340376
0.342672
0.344945
0.347194
0.34942
0.351622
0.353798
0.355948
0.358072
0.360169
0.362238
0.364279
0.36629
0.368273
0.370225
0.372147
0.374037
0.375896
0.377722
0.379515
0.381275
0.383
0.384691
0.386347
0.387967
0.389551
0.391099
0.392609
0.394082
0.395517
0.396913
0.39827
0.399588
0.400866
0.402104
0.403301
0.404457
0.405572
0.406645
0.407677
0.408665
0.409611
0.410514
0.411374
0.41219
0.412962
0.41369
0.414374
0.415013
0.415608
0.416157
0.416661
0.41712
0.417534
0.417902
0.418224
0.4185
0.418731
0.418915
0.419054
0.419146
0.419192
0.419192
0.419146
0.419054
0.418915
0.418731
0.4185
0.418224
0.417902
0.417534
0.41712
0.416661
0.416157
0.415608
0.415013
0.414374
0.41369
0.412962
0.41219
0.411374
0.410514
0.409611
0.408665
0.407677
0.406645
0.405572
0.404457
0.403301
0.402104
0.400866
0.399588
0.39827
0.396913
0.395517
0.394082
0.392609
0.391099
0.389551
0.387967
0.386347
0.384691
0.383
0.381275
0.379515
0.377722
0.375896
0.374037
0.372147
0.370225
0.368273
0.36629
0.364279
0.362238
0.360169
0.358072
0.355948
0.353798
0.351622
0.34942
0.347194
0.344945
0.342672
0.340376
0.338059
0.33572
0.333361
0.330981
0.328583
0.326165
0.32373
0.321277
0.318808
0.316323
0.313823
0.311308
0.308778
0.306236
0.303681
0.301114
0.298536
0.295947
0.293348
0.29074
0.288123
0.285498
0.282866
0.280227
0.277581
0.274931
0.272275
0.269616
0.266953
0.264287
0.261618
0.258948
0.256277
0.253605
0.250933
0.248262
0.245592
0.242924
0.240258
0.237595
0.234936
0.23228
0.229629
0.226984
0.224343
0.221709
0.219082
0.216462
0.213849
0.211244
0.208648
0.206061
0.203484
0.200916
0.198359
0.195813
0.193277
0.190754
0.188242
0.185743
0.183257
0.180784
0.178324
0.175879
0.173447
0.17103
0.168628
0.166242
0.16387
0.161515
0.159176
0.156853
0.154547
0.152258
0.149986
0.147732
0.145495
0.143276
0.141075
0.138893
0.136729
0.134583
0.132457
0.13035
0.128262
0.126193
0.124144
0.122114
0.120104
0.118115
0.116145
0.114195
0.112265
0.110356
0.108467
0.106598
0.10475
0.102923
0.101116
0.0993295
0.0975638
0.0958188
0.0940944
0.0923908
0.0907078
0.0890455
0.0874039
0.085783
0.0841827
0.0826029
0.0810438
0.0795052
0.077987
0.0764893
0.0750119
0.0735548
0.0721179
0.0707011
0.0693044
0.0679277
0.0665709
0.0652338
0.0639164
0.0626186
0.0613403
0.0600812
0.0588415
0.0576208
0.0564191
0.0552363
0.0540722
0.0529266
0.0517996
0.0506908
0.0496001
0.0485275
0.0474727
0.0464356
0.0454161
0.0444139
0.043429
0.0424611
0.0415102
0.0405759
0.0396582
0.0387569
0.0378718
0.0370028
0.0361496
0.0353121
0.0344901
0.0336834
0.0328919
0.0321154
0.0313536
0.0306065
0.0298738
0.0291554
0.028451
0.0277605
0.0270837
0.0264204
0.0257704
0.0251336
0.0245097
0.0238987
0.0233002
0.0227141
0.0221403
0.0215786
0.0210287
0.0204905
0.0199638
0.0194484
0.0189442
0.018451
0.0179686
0.0174968
0.0170355
0.0165844
0.0161435
0.0157125
0.0152913
0.0148797
0.0144775
0.0140846
0.0137008
0.0133259
0.0129599
0.0126024
0.0122534
0.0119128
0.0115802
0.0112557
0.0109391
0.0106301
0.0103287
0.0100347
0.00974793
0.0094683
0.00919564
0.00892982
0.0086707
0.00841813
0.008172
0.00793215
0.00769847
0.00747082
0.00724908
0.00703311
0.00682281
0.00661803
0.00641867
0.00622461
0.00603573
0.0058519
0.00567303
0.005499
0.0053297
0.00516503
0.00500487
0.00484912
0.00469768
0.00455045
0.00440733
0.00426823
0.00413304
0.00400168
0.00387405
0.00375006
0.00362963
0.00351266
0.00339907
0.00328878
0.0031817
0.00307776
0.00297687
0.00287896
0.00278395
0.00269177
0.00260234
0.00251559
0.00243146
0.00234987
0.00227076
0.00219406
0.00211971
0.00204765
0.0019778
0.00191012
0.00184455
0.00178102
0.00171948
0.00165988
0.00160216
0.00154627
0.00149215
0.00143977
0.00138907
0.00133999
0.00129251
0.00124656
0.00120211
0.0011591
0.00111751
0.00107729
0.0010384
0.00100079
0.000964438
0.000929297
0.000895334
0.000862513
0.000830799
0.00080016
0.000770561
0.000741972
0.000714362
0.000687699
0.000661956
0.000637103
0.000613112
0.000589957
0.000567611
0.000546048
0.000525244
0.000505174
0.000485815
0.000467144
0.000449139
0.000431778
0.00041504
0.000398905
0.000383353
0.000368365
0.000353922
0.000340006
0.0003266
0.000313686
0.000301247
0.000289269
0.000277735
0.000266629
0.000255939
0.000245648
0.000235744
0.000226214
0.000217043
0.00020822
0.000199733
0.000191569
0.000183718
0.000176168
0.000168909
0.000161931
0.000155223
0.000148775
0.000142579
0.000136625
0.000130904
0.000125409
0.00012013
0.00011506
0.000110191
0.000105517
0.000101028
9.67198e-05
9.25843e-05
8.86153e-05
8.48067e-05
8.11523e-05
7.76465e-05
7.42835e-05
7.10579e-05
6.79645e-05
6.49982e-05
6.21542e-05
5.94277e-05
5.68143e-05
5.43095e-05
5.19091e-05
4.9609e-05
4.74054e-05
4.52944e-05
4.32724e-05
4.13359e-05
3.94815e-05
3.77059e-05
3.6006e-05
3.43788e-05
3.28212e-05
3.13307e-05
2.99044e-05
2.85397e-05
2.72341e-05
2.59853e-05
2.47909e-05
2.36487e-05
2.25565e-05
2.15122e-05
2.0514e-05
1.95599e-05
1.8648e-05
1.77765e-05
1.69439e-05
1.61485e-05
1.53886e-05
1.46629e-05
1.39698e-05
1.3308e-05
1.26761e-05
1.20729e-05
1.14971e-05
1.09476e-05
1.04232e-05
9.92292e-06
9.44561e-06
8.99031e-06
8.55608e-06
8.14198e-06
7.74714e-06
7.37073e-06
7.01192e-06
6.66996e-06
6.34409e-06
6.0336e-06
5.73782e-06
5.4561e-06
5.1878e-06
4.93234e-06
4.68915e-06
4.45767e-06
4.23738e-06
4.02778e-06
3.8284e-06
3.63878e-06
3.45847e-06
3.28707e-06
3.12418e-06
2.96941e-06
2.8224e-06
2.6828e-06
2.55029e-06
2.42454e-06
2.30527e-06
2.19217e-06
2.08498e-06
1.98344e-06
1.88729e-06
1.79632e-06
1.71029e-06
1.62899e-06
1.55222e-06
1.47979e-06
1.41152e-06
1.34724e-06
1.28678e-06
1.23e-06
1.17676e-06
1.12691e-06
1.08033e-06
1.03691e-06
9.96521e-07
9.59073e-07
9.24466e-07
8.92612e-07
8.63427e-07
8.36837e-07
8.12773e-07
7.91171e-07
7.71976e-07
7.55139e-07
7.40613e-07
7.28363e-07
7.18356e-07
7.10566e-07
7.04972e-07
7.01559e-07
7.00319e-07
)
;

boundaryField
{
    sides
    {
        type            zeroGradient;
    }
    empty
    {
        type            empty;
    }
}


// ************************************************************************* //
