/*--------------------------------*- C++ -*----------------------------------*\
| =========                 |                                                 |
| \\      /  F ield         | OpenFOAM: The Open Source CFD Toolbox           |
|  \\    /   O peration     | Version:  2312                                  |
|   \\  /    A nd           | Website:  www.openfoam.com                      |
|    \\/     M anipulation  |                                                 |
\*---------------------------------------------------------------------------*/
FoamFile
{
    version     2.0;
    format      ascii;
    arch        "LSB;label=32;scalar=64";
    class       volScalarField;
    location    "3.6";
    object      T;
}
// * * * * * * * * * * * * * * * * * * * * * * * * * * * * * * * * * * * * * //

dimensions      [0 0 0 1 0 0 0];

internalField   nonuniform List<scalar> 
1000
(
0
0
0
0
0
0
0
0
0
0
0
0
0
0
0
0
0
0
0
0
0
0
0
0
0
0
0
0
0
0
0
0
0
0
0
0
0
0
0
0
0
0
0
0
0
0
0
0
0
0
0
0
0
0
0
0
0
0
0
0
0
0
0
0
0
0
0
0
0
0
0
0
0
0
0
0
0
0
0
0
0
0
0
0
0
0
0
0
0
0
0
0
0
0
0
0
0
0
0
0
0
0
0
0
0
0
0
0
0
0
0
0
0
0
0
0
0
0
0
0
0
0
0
0
0
0
0
0
0
0
0
0
0
0
0
0
0
0
0
0
0
0
0
0
0
0
0
0
0
0
0
0
0
0
0
0
0
0
0
0
0
0
0
0
0
0
0
0
0
0
0
0
0
0
0
0
0
0
0
0
0
0
0
0
0
0
0
0
0
0
0
0
0
0
0
0
0
0
0
0
0
0
0
0
0
0
0
0
0
0
0
0
0
0
0
0
0
0
0
0
0
0
0
0
0
0
0
0
0
0
0
0
0
0
0
0
7.41098e-322
6.53155e-320
5.23005e-318
4.1655e-316
3.30278e-314
2.60702e-312
2.04857e-310
1.60247e-308
1.24782e-306
9.67214e-305
7.46271e-303
5.73142e-301
4.38136e-299
3.33369e-297
2.52466e-295
1.90295e-293
1.42755e-291
1.06582e-289
7.9194e-288
5.85607e-286
4.30937e-284
3.15576e-282
2.29967e-280
1.66758e-278
1.20325e-276
8.63891e-275
6.17146e-273
4.3866e-271
3.10219e-269
2.18271e-267
1.52791e-265
1.06405e-263
7.37183e-262
5.08072e-260
3.48336e-258
2.37564e-256
1.61162e-254
1.08749e-252
7.29891e-251
4.87244e-249
3.23502e-247
2.13617e-245
1.40284e-243
9.16176e-242
5.95023e-240
3.8429e-238
2.46796e-236
1.576e-234
1.00069e-232
6.31759e-231
3.96548e-229
2.47467e-227
1.53532e-225
9.4695e-224
5.80607e-222
3.53874e-220
2.14393e-218
1.29107e-216
7.72766e-215
4.59716e-213
2.71804e-211
1.59709e-209
9.3259e-208
5.41156e-206
3.12037e-204
1.78781e-202
1.01777e-200
5.75668e-199
3.23496e-197
1.806e-195
1.00162e-193
5.51822e-192
3.01987e-190
1.64153e-188
8.86253e-187
4.7522e-185
2.53069e-183
1.33833e-181
7.02832e-180
3.66502e-178
1.89765e-176
9.7554e-175
4.97898e-173
2.52278e-171
1.26892e-169
6.33549e-168
3.13974e-166
1.54436e-164
7.53902e-163
3.65233e-161
1.75584e-159
8.3759e-158
3.96445e-156
1.8617e-154
8.67327e-153
4.00842e-151
1.8376e-149
8.35572e-148
3.76828e-146
1.68537e-144
7.47499e-143
3.28742e-141
1.43349e-139
6.1972e-138
2.65598e-136
1.12836e-134
4.75143e-133
1.983e-131
8.20171e-130
3.36149e-128
1.36511e-126
5.49249e-125
2.18927e-123
8.64407e-122
3.38051e-120
1.30933e-118
5.02201e-117
1.90731e-115
7.17195e-114
2.6698e-112
9.83779e-111
3.58797e-109
1.29503e-107
4.62536e-106
1.63452e-104
5.71435e-103
1.97614e-101
6.75911e-100
2.28627e-98
7.64671e-97
2.52855e-95
8.26533e-94
2.67041e-92
8.52636e-91
2.69e-89
8.38453e-88
2.58152e-86
7.85006e-85
2.35723e-83
6.98856e-82
2.0453e-80
5.90792e-79
1.68399e-77
4.7358e-76
1.31375e-74
3.59427e-73
9.69617e-72
2.57865e-70
6.75917e-69
1.74585e-67
4.4426e-66
1.11347e-64
2.74809e-63
6.67704e-62
1.59671e-60
3.757e-59
8.69586e-58
1.97932e-56
4.42921e-55
9.74113e-54
2.10489e-52
4.46733e-51
9.30927e-50
1.90407e-48
3.82111e-47
7.52098e-46
1.45133e-44
2.74466e-43
5.08461e-42
9.22316e-41
1.6374e-39
2.84365e-38
4.82862e-37
8.0125e-36
1.29859e-34
2.05439e-33
3.17059e-32
4.77052e-31
6.99312e-30
9.98044e-29
1.38573e-27
1.87034e-26
2.45197e-25
3.11947e-24
3.84781e-23
4.59712e-22
5.31425e-21
5.93738e-20
6.40363e-19
6.65854e-18
6.66589e-17
6.41537e-16
5.92624e-15
5.24546e-14
4.44043e-13
3.58777e-12
2.76072e-11
2.01822e-10
1.39802e-09
9.14918e-09
5.63865e-08
3.26086e-07
1.76244e-06
8.86294e-06
4.12607e-05
0.00017682
0.000693091
0.00246709
0.00791079
0.022648
0.057343
0.127183
0.245083
0.408578
0.591422
0.754917
0.872817
0.942657
0.977352
0.992089
0.997533
0.999307
0.999823
0.999959
0.999991
0.999998
1
1
1
1
1
1
1
1
1
1
1
1
1
1
1
1
1
1
1
1
1
1
1
1
1
1
1
1
1
1
1
1
1
1
1
1
1
1
1
1
1
1
1
1
1
1
1
1
1
1
1
1
1
1
1
1
1
1
1
1
1
1
1
1
1
1
1
1
1
1
1
1
1
1
1
1
0.999998
0.999991
0.999959
0.999823
0.999307
0.997533
0.992089
0.977352
0.942657
0.872817
0.754917
0.591422
0.408578
0.245083
0.127183
0.057343
0.022648
0.00791079
0.00246709
0.000693091
0.00017682
4.12607e-05
8.86294e-06
1.76244e-06
3.26086e-07
5.63865e-08
9.14918e-09
1.39802e-09
2.01822e-10
2.76072e-11
3.58777e-12
4.44043e-13
5.24546e-14
5.92624e-15
6.41537e-16
6.66589e-17
6.65854e-18
6.40363e-19
5.93738e-20
5.31425e-21
4.59712e-22
3.84781e-23
3.11947e-24
2.45197e-25
1.87034e-26
1.38573e-27
9.98044e-29
6.99312e-30
4.77052e-31
3.17059e-32
2.05439e-33
1.29859e-34
8.0125e-36
4.82862e-37
2.84365e-38
1.6374e-39
9.22316e-41
5.08461e-42
2.74466e-43
1.45133e-44
7.52098e-46
3.82111e-47
1.90407e-48
9.30927e-50
4.46733e-51
2.10489e-52
9.74113e-54
4.42921e-55
1.97932e-56
8.69586e-58
3.757e-59
1.59671e-60
6.67704e-62
2.74809e-63
1.11347e-64
4.4426e-66
1.74585e-67
6.75917e-69
2.57865e-70
9.69617e-72
3.59427e-73
1.31375e-74
4.7358e-76
1.68399e-77
5.90792e-79
2.0453e-80
6.98856e-82
2.35723e-83
7.85006e-85
2.58152e-86
8.38453e-88
2.69e-89
8.52636e-91
2.67041e-92
8.26533e-94
2.52855e-95
7.64671e-97
2.28627e-98
6.75911e-100
1.97614e-101
5.71435e-103
1.63452e-104
4.62536e-106
1.29503e-107
3.58797e-109
9.83779e-111
2.6698e-112
7.17195e-114
1.90731e-115
5.02201e-117
1.30933e-118
3.38051e-120
8.64407e-122
2.18927e-123
5.49249e-125
1.36511e-126
3.36149e-128
8.20171e-130
1.983e-131
4.75143e-133
1.12836e-134
2.65598e-136
6.1972e-138
1.43349e-139
3.28742e-141
7.47499e-143
1.68537e-144
3.76828e-146
8.35572e-148
1.8376e-149
4.00842e-151
8.67327e-153
1.8617e-154
3.96445e-156
8.3759e-158
1.75584e-159
3.65233e-161
7.53902e-163
1.54436e-164
3.13974e-166
6.33549e-168
1.26892e-169
2.52278e-171
4.97898e-173
9.7554e-175
1.89765e-176
3.66502e-178
7.02832e-180
1.33833e-181
2.53069e-183
4.7522e-185
8.86253e-187
1.64153e-188
3.01987e-190
5.51822e-192
1.00162e-193
1.806e-195
3.23496e-197
5.75668e-199
1.01777e-200
1.78781e-202
3.12037e-204
5.41156e-206
9.3259e-208
1.59709e-209
2.71804e-211
4.59716e-213
7.72766e-215
1.29107e-216
2.14393e-218
3.53874e-220
5.80607e-222
9.4695e-224
1.53532e-225
2.47467e-227
3.96548e-229
6.31759e-231
1.00069e-232
1.576e-234
2.46796e-236
3.8429e-238
5.95023e-240
9.16176e-242
1.40284e-243
2.13617e-245
3.23502e-247
4.87244e-249
7.29891e-251
1.08749e-252
1.61162e-254
2.37564e-256
3.48336e-258
5.08072e-260
7.37183e-262
1.06405e-263
1.52791e-265
2.18271e-267
3.10219e-269
4.3866e-271
6.17146e-273
8.63891e-275
1.20325e-276
1.66758e-278
2.29967e-280
3.15576e-282
4.30937e-284
5.85607e-286
7.9194e-288
1.06582e-289
1.42755e-291
1.90295e-293
2.52466e-295
3.33369e-297
4.38136e-299
5.73142e-301
7.46271e-303
9.67214e-305
1.24782e-306
1.60247e-308
2.04857e-310
2.60702e-312
3.30278e-314
4.1655e-316
5.23005e-318
6.53155e-320
7.41098e-322
0
0
0
0
0
0
0
0
0
0
0
0
0
0
0
0
0
0
0
0
0
0
0
0
0
0
0
0
0
0
0
0
0
0
0
0
0
0
0
0
0
0
0
0
0
0
0
0
0
0
0
0
0
0
0
0
0
0
0
0
0
0
0
0
0
0
0
0
0
0
0
0
0
0
0
0
0
0
0
0
0
0
0
0
0
0
0
0
0
0
0
0
0
0
0
0
0
0
0
0
0
0
0
0
0
0
0
0
0
0
0
0
0
0
0
0
0
0
0
0
0
0
0
0
0
0
0
0
0
0
0
0
0
0
0
0
0
0
0
0
0
0
0
0
0
0
0
0
0
0
0
0
0
0
0
0
0
0
0
0
0
0
0
0
0
0
0
0
0
0
0
0
0
0
0
0
0
0
0
0
0
0
0
0
0
0
0
0
0
0
0
0
0
0
0
0
0
0
0
0
0
0
0
0
0
0
0
0
0
0
0
0
0
0
0
0
0
0
0
0
0
0
0
0
0
0
0
0
0
0
0
0
0
0
0
0
)
;

boundaryField
{
    sides
    {
        type            zeroGradient;
    }
    empty
    {
        type            empty;
    }
}


// ************************************************************************* //
