/*--------------------------------*- C++ -*----------------------------------*\
| =========                 |                                                 |
| \\      /  F ield         | OpenFOAM: The Open Source CFD Toolbox           |
|  \\    /   O peration     | Version:  2312                                  |
|   \\  /    A nd           | Website:  www.openfoam.com                      |
|    \\/     M anipulation  |                                                 |
\*---------------------------------------------------------------------------*/
FoamFile
{
    version     2.0;
    format      ascii;
    arch        "LSB;label=32;scalar=64";
    class       volScalarField;
    location    "1.3";
    object      T;
}
// * * * * * * * * * * * * * * * * * * * * * * * * * * * * * * * * * * * * * //

dimensions      [0 0 0 1 0 0 0];

internalField   nonuniform List<scalar> 
1000
(
4.02008e-139
-1.73514e-138
7.10048e-138
-2.91987e-137
1.19838e-136
-4.91016e-136
2.00844e-135
-8.20126e-135
3.3432e-134
-1.36051e-133
5.52705e-133
-2.2415e-132
9.07476e-132
-3.66759e-131
1.4797e-130
-5.95949e-130
2.39601e-129
-9.61632e-129
3.85273e-128
-1.54086e-127
6.15168e-127
-2.45164e-126
9.75323e-126
-3.8732e-125
1.53538e-124
-6.07558e-124
2.39983e-123
-9.46221e-123
3.72411e-122
-1.46308e-121
5.73755e-121
-2.24593e-120
8.77552e-120
-3.42261e-119
1.33243e-118
-5.17769e-118
2.00829e-117
-7.77522e-117
3.00466e-116
-1.15896e-115
4.46206e-115
-1.7147e-114
6.57699e-114
-2.51796e-113
9.62171e-113
-3.66973e-112
1.39698e-111
-5.30789e-111
2.01291e-110
-7.61895e-110
2.87828e-109
-1.08526e-108
4.08409e-108
-1.53397e-107
5.75033e-107
-2.15141e-106
8.03349e-106
-2.99388e-105
1.11355e-104
-4.13359e-104
1.53139e-103
-5.66217e-103
2.08937e-102
-7.69448e-102
2.82796e-101
-1.03728e-100
3.79699e-100
-1.38709e-99
5.05698e-99
-1.83989e-98
6.68046e-98
-2.42064e-97
8.7531e-97
-3.15862e-96
1.13746e-95
-4.08763e-95
1.4659e-94
-5.24599e-94
1.87345e-93
-6.6764e-93
2.37425e-92
-8.42542e-92
2.98355e-91
-1.05427e-90
3.7174e-90
-1.30796e-89
4.59216e-89
-1.60879e-88
5.62395e-88
-1.96173e-87
6.82792e-87
-2.3713e-86
8.21732e-86
-2.84129e-85
9.8026e-85
-3.37444e-84
1.15903e-83
-3.97206e-83
1.35819e-82
-4.63372e-82
1.57731e-81
-5.35695e-81
1.81522e-80
-6.13692e-80
2.07002e-79
-6.96624e-79
2.33894e-78
-7.8349e-78
2.6184e-77
-8.73023e-77
2.904e-76
-9.63706e-76
3.19056e-75
-1.0538e-74
3.47231e-74
-1.14141e-73
3.743e-73
-1.22449e-72
3.99612e-72
-1.30098e-71
4.22515e-71
-1.36884e-70
4.42383e-70
-1.42617e-69
4.58641e-69
-1.47128e-68
4.70795e-68
-1.50274e-67
4.78455e-67
-1.51951e-66
4.81355e-66
-1.52097e-65
4.79368e-65
-1.50696e-64
4.72514e-64
-1.47776e-63
4.60962e-63
-1.43415e-62
4.45025e-62
-1.37731e-61
4.2514e-61
-1.30882e-60
4.01856e-60
-1.23055e-59
3.75801e-59
-1.14458e-58
3.47661e-58
-1.05313e-57
3.18143e-57
-9.58445e-57
2.87948e-56
-8.62693e-56
2.57744e-55
-7.67904e-55
2.28141e-54
-6.75887e-54
1.9967e-53
-5.88184e-53
1.72771e-52
-5.06033e-52
1.47785e-51
-4.30351e-51
1.24953e-50
-3.61742e-50
1.04417e-49
-3.00508e-49
8.62284e-49
-2.46687e-48
7.03619e-48
-2.00087e-47
5.67258e-47
-1.60332e-46
4.51779e-46
-1.2691e-45
3.55403e-45
-9.92191e-45
2.76128e-44
-7.66057e-44
2.11855e-43
-5.84031e-43
1.60489e-42
-4.39605e-42
1.20026e-41
-3.26649e-41
8.8607e-41
-2.39569e-40
6.45595e-40
-1.734e-39
4.64183e-39
-1.23843e-38
3.293e-38
-8.72642e-38
2.30462e-37
-6.06558e-37
1.59091e-36
-4.15827e-36
1.08309e-35
-2.81117e-35
7.27072e-35
-1.8738e-34
4.81189e-34
-1.23125e-33
3.1391e-33
-7.97409e-33
2.01821e-32
-5.08919e-32
1.27856e-31
-3.20014e-31
7.9797e-31
-1.98226e-30
4.90547e-30
-1.20931e-29
2.96973e-29
-7.26457e-29
1.77013e-28
-4.29627e-28
1.03862e-27
-2.50085e-27
5.99757e-27
-1.43253e-26
3.40772e-26
-8.07311e-26
1.90468e-25
-4.47504e-25
1.04701e-24
-2.43931e-24
5.65895e-24
-1.3072e-23
3.00657e-23
-6.88511e-23
1.5698e-22
-3.56333e-22
8.05254e-22
-1.81158e-21
4.05712e-21
-9.04468e-21
2.0071e-20
-4.43334e-20
9.74674e-20
-2.13274e-19
4.6446e-19
-1.00664e-18
2.17118e-18
-4.6601e-18
9.95297e-18
-2.11519e-17
4.47266e-17
-9.40982e-17
1.96959e-16
-4.10134e-16
8.49595e-16
-1.7507e-15
3.58841e-15
-7.31578e-15
1.48342e-14
-2.99147e-14
5.99932e-14
-1.19643e-13
2.37256e-13
-4.67804e-13
9.17063e-13
-1.78729e-12
3.46277e-12
-6.66889e-12
1.2766e-11
-2.42884e-11
4.59249e-11
-8.62926e-11
1.61116e-10
-2.98889e-10
5.5087e-10
-1.0086e-09
1.83435e-09
-3.31359e-09
5.94462e-09
-1.05905e-08
1.87342e-08
-3.29027e-08
5.73663e-08
-9.92802e-08
1.70529e-07
-2.90675e-07
4.91628e-07
-8.2495e-07
1.37316e-06
-2.26699e-06
3.71151e-06
-6.02495e-06
9.69584e-06
-1.54657e-05
2.44471e-05
-3.82887e-05
5.94035e-05
-9.12759e-05
0.000138868
-0.000209143
0.00031172
-0.000459669
0.000670432
-0.000966834
0.00137812
-0.00194085
0.00269956
-0.00370674
0.00502201
-0.00670984
0.00883556
-0.0114591
0.014626
-0.0183565
0.022631
-0.0273758
0.0324477
-0.037622
0.042586
-0.0469426
0.050227
-0.0519396
0.0515974
-0.0488011
0.0433147
-0.0351448
0.0246093
-0.0123754
-0.000549603
0.0128881
-0.0232302
0.0302327
-0.0328555
0.0305989
-0.0236876
0.0131491
-0.000739524
-0.0113016
0.0206508
-0.0253897
0.0244807
-0.0181027
0.00772937
0.00411807
-0.0144352
0.020505
-0.0206802
0.0149396
-0.00500873
-0.00605636
0.0147602
-0.0182914
0.0155144
-0.0074572
-0.00294719
0.0118513
-0.0159122
0.0136179
-0.0059707
-0.00382372
0.011622
-0.0140984
0.0102445
-0.00190346
-0.00699314
0.0122262
-0.0113265
0.00484696
0.00383653
-0.0101993
0.0109287
-0.00573733
-0.00241131
0.00889543
-0.010043
0.00528984
0.00242701
-0.00838335
0.00894677
-0.0038726
-0.00348674
0.00830511
-0.00745061
0.00161409
0.00511238
-0.00803583
0.00516982
0.00130809
-0.0065978
0.00680477
-0.00188
-0.00430407
0.00691998
-0.00397766
-0.00206057
0.00624019
-0.00517279
-0.000120461
0.00503628
-0.00531099
0.000728986
0.00466797
-0.00618177
0.00273233
0.00210423
-0.00336988
-0.000638796
0.00676465
-0.0100696
0.0087256
-0.00590906
0.00669224
-0.0129382
0.0213969
-0.027078
0.028481
-0.0291263
0.0336043
-0.0422997
0.0505985
-0.0536074
0.0512113
-0.0477111
0.0463617
-0.0451518
0.0389597
-0.0257616
0.00953232
0.00378967
-0.0124862
0.0197814
-0.0281942
0.0348128
-0.0339164
0.0239792
-0.010096
-0.0014906
0.00970459
-0.0174944
0.0250736
-0.0273897
0.020064
-0.00596195
-0.00699643
0.0142117
-0.0175629
0.0194389
-0.017235
0.00730396
0.00727702
-0.0175571
0.0182725
-0.0127471
0.00638592
0.000618985
-0.00994536
0.0175514
-0.0160513
0.00512013
0.00649374
-0.0115439
0.0114256
-0.00963939
0.00441717
0.00582866
-0.0144892
0.0129209
-0.00286717
-0.00574361
0.00849047
-0.00880515
0.00721862
0.00014526
-0.010213
0.0123968
-0.00405933
-0.00482658
0.0071557
-0.00653878
0.00518575
0.00111228
-0.00979265
0.00973475
0.000132269
-0.007225
0.00596072
-0.00334463
0.00113912
0.00521072
-0.00961126
0.00263461
0.00739386
-0.006858
0.000831082
0.000958114
-0.00329011
0.00727861
-0.00199368
-0.00831896
0.00649225
0.00268468
-0.00348495
0.00194659
-0.00435921
-0.00110471
0.00939343
-0.0022039
-0.00749932
0.00238872
0.00100081
0.00199858
0.00500159
-0.00685601
-0.00723727
0.00678005
0.00540883
-0.00038111
-0.000622766
-0.00775758
-0.00545233
0.010048
0.0094159
-0.00252054
-0.00606126
-0.0090811
-0.00632007
0.0110144
0.017733
0.00358562
-0.00955203
-0.0170677
-0.0189983
-0.000435501
0.0271049
0.0340363
0.0199313
-0.00614122
-0.0440747
-0.0716018
-0.0577461
-0.00149925
0.0895264
0.217295
0.365386
0.505832
0.632491
0.745366
0.8312
0.888621
0.93243
0.964284
0.978685
0.98596
0.995394
0.999607
0.996856
0.997828
1.00222
1.00077
0.997301
0.999913
1.00267
0.999394
0.997486
1.00116
1.00226
0.998406
0.99802
1.00191
1.00171
0.997876
0.998519
1.00227
1.00132
0.997646
0.998769
1.0024
1.00123
0.997592
0.998687
1.00237
1.00149
0.997716
0.998254
1.00211
1.00208
0.998174
0.997554
1.00139
1.00281
0.999242
0.996916
0.999928
1.00316
1.00108
0.997088
0.997835
1.00221
1.00314
0.999028
0.996275
0.999277
1.00356
1.00259
0.997622
0.995917
1.00014
1.00444
1.00266
0.996983
0.995075
0.999765
1.00517
1.0042
0.997667
0.993486
0.99706
1.00464
1.00747
1.0018
0.993332
0.991312
0.998634
1.0085
1.01092
1.00251
0.990138
0.98511
0.993174
1.00915
1.02052
1.01696
0.998478
0.976213
0.965672
0.977016
1.00837
1.04567
1.06845
1.05806
1.00441
0.908512
0.780938
0.637492
0.494392
0.364567
0.255875
0.171096
0.109083
0.0663497
0.0385133
0.0213337
0.0112728
0.00567705
0.00272082
0.00123814
0.000533137
0.000216095
8.17825e-05
2.85126e-05
8.93382e-06
2.38347e-06
4.58308e-07
3.89206e-09
-5.37813e-08
-3.48166e-08
-1.55198e-08
-5.55711e-09
-1.61376e-09
-3.44478e-10
-2.52681e-11
2.28859e-11
1.59546e-11
6.67472e-12
2.09108e-12
4.74891e-13
4.82709e-14
-2.14431e-14
-1.62869e-14
-6.54433e-15
-1.86126e-15
-3.42059e-16
-4.29118e-19
3.15465e-17
1.58723e-17
5.02332e-18
1.04723e-18
6.47489e-20
-6.04669e-20
-3.44351e-20
-1.10855e-20
-2.26982e-21
-1.23404e-22
1.31345e-22
6.98194e-23
2.07997e-23
3.68171e-24
-2.33216e-26
-2.99715e-25
-1.28465e-25
-3.22585e-26
-3.97749e-27
7.53455e-28
6.14406e-28
2.00145e-28
3.75767e-29
8.34676e-31
-2.37139e-30
-1.01663e-30
-2.39033e-31
-2.3576e-32
7.34388e-33
4.50055e-33
1.24545e-33
1.74829e-34
-1.68679e-35
-1.80684e-35
-5.69865e-36
-9.48563e-37
1.81181e-38
6.79123e-38
2.37392e-38
4.3301e-39
6.98729e-41
-2.45655e-40
-9.198e-41
-1.74739e-41
-5.32163e-43
8.73454e-43
3.35557e-43
6.36814e-44
1.95004e-45
-3.08363e-45
-1.15856e-45
-2.11144e-46
-3.91317e-48
1.07736e-47
3.78288e-48
6.35213e-49
-4.39837e-51
-3.67501e-50
-1.16156e-50
-1.71045e-51
8.72954e-53
1.20236e-52
3.3214e-53
3.99169e-54
-5.17543e-55
-3.70755e-55
-8.71802e-56
-7.43767e-57
2.23824e-57
1.06048e-57
2.05555e-58
7.87587e-60
-8.00757e-60
-2.77026e-60
-4.19145e-61
1.39464e-62
2.46753e-62
6.48801e-63
6.77173e-64
-1.18417e-64
-6.63699e-65
-1.32456e-65
-6.04958e-67
4.53806e-67
1.55605e-67
2.22801e-68
-1.02028e-69
-1.30791e-69
-3.12941e-70
-2.60969e-71
7.05866e-72
3.088e-72
5.1711e-73
1.39441e-75
-2.25174e-74
-6.05118e-75
-6.16416e-76
1.01011e-76
5.31944e-77
9.54185e-78
2.01925e-79
-3.54315e-79
-9.98498e-80
-1.06752e-80
1.46112e-81
8.16821e-82
1.46136e-82
3.11148e-84
-5.22083e-84
-1.43163e-84
-1.43967e-85
2.22302e-86
1.12764e-86
1.88005e-87
1.07441e-89
-7.18902e-89
-1.78627e-89
-1.49444e-90
3.37875e-91
1.39014e-91
2.01094e-92
-5.6898e-94
-9.04552e-94
-1.91567e-94
-1.06843e-95
4.72976e-96
1.50301e-96
1.7197e-97
-1.61621e-98
-1.00875e-98
-1.71779e-99
-2.24519e-101
5.75971e-101
1.38726e-101
1.04973e-102
-2.63252e-103
-9.66176e-104
-1.21825e-104
7.20786e-106
5.90359e-106
1.04987e-106
2.4155e-108
-3.13171e-108
-7.67742e-109
-5.88065e-110
1.36683e-110
4.967e-111
6.02889e-112
-3.93643e-113
-2.87947e-113
-4.80655e-114
-5.48493e-116
1.48798e-115
3.31749e-116
2.0429e-117
-6.65408e-118
-2.05762e-118
-2.10233e-119
2.33869e-120
1.16357e-120
1.63897e-121
-3.77353e-123
-6.0128e-123
-1.10408e-123
-3.33348e-125
2.81324e-125
6.71962e-126
4.68756e-127
-1.1578e-127
-3.76754e-128
-3.91251e-129
3.85348e-130
1.96271e-130
2.68888e-131
-6.95939e-133
-9.51765e-133
-1.64705e-133
-3.40113e-135
4.27667e-135
9.28196e-136
5.16909e-137
-1.75618e-137
-4.88791e-138
-4.16999e-139
6.37256e-140
2.42498e-140
2.73558e-141
-1.85845e-142
-1.13789e-142
-1.599e-143
2.67091e-145
5.05408e-145
8.62897e-146
1.68586e-147
-2.11989e-147
-4.37554e-148
-2.10295e-149
8.34138e-150
2.10567e-150
1.5243e-151
-3.03597e-152
-9.67525e-153
-9.14714e-154
9.91214e-155
4.2606e-155
4.9372e-156
-2.6792e-157
-1.80206e-157
-2.47804e-158
4.22993e-160
7.32788e-160
1.17629e-160
1.29655e-162
-2.86436e-162
-5.33321e-163
-1.79875e-164
1.07471e-164
2.32424e-165
1.23332e-166
-3.85828e-167
-9.77853e-168
-6.86855e-169
1.31767e-169
3.98401e-170
3.42826e-171
-4.23584e-172
-1.57554e-172
-1.59207e-173
1.2558e-174
6.05859e-175
7.00742e-176
-3.28105e-177
-2.26855e-177
-2.95449e-178
6.59319e-180
8.28008e-180
1.20135e-180
-3.23349e-183
-2.9485e-182
-4.73296e-183
-6.43075e-185
1.02503e-184
1.8127e-185
4.97907e-187
-3.48071e-187
-6.76635e-188
-2.67709e-189
1.15492e-189
2.46655e-190
1.2405e-191
-3.74531e-192
-8.79509e-193
-5.27174e-194
1.1872e-194
3.07181e-195
2.11062e-196
-3.67836e-197
-1.0521e-197
-8.07462e-199
1.11379e-199
3.53728e-200
2.97695e-201
-3.29488e-202
-1.16847e-202
-1.06353e-203
9.51817e-205
3.79533e-205
3.6958e-206
-2.68317e-207
-1.21306e-207
-1.25271e-208
7.37436e-210
3.81773e-210
4.15032e-211
-1.97358e-212
-1.1838e-212
-1.34617e-213
5.13521e-215
3.61869e-215
4.28019e-216
-1.29643e-217
-1.09104e-217
-1.33542e-218
3.16729e-220
3.24606e-220
4.09201e-221
-7.46326e-223
-9.53409e-223
-1.23231e-223
1.68905e-225
2.76553e-225
3.64938e-226
-3.65278e-228
-7.925e-228
-1.06328e-228
7.5082e-231
2.24425e-230
3.04914e-231
-1.46225e-233
-6.28208e-233
-8.60904e-234
2.72038e-236
1.73853e-235
2.39384e-236
-5.05976e-239
-4.75749e-238
-6.55682e-239
1.06594e-241
1.28747e-240
1.76937e-241
-2.95985e-244
-3.44578e-243
-4.70463e-244
1.05323e-246
9.12102e-246
1.23266e-246
-4.08436e-249
-2.38778e-248
-3.18329e-249
1.84892e-251
5.06028e-251
)
;

boundaryField
{
    sides
    {
        type            zeroGradient;
    }
    empty
    {
        type            empty;
    }
}


// ************************************************************************* //
