/*--------------------------------*- C++ -*----------------------------------*\
| =========                 |                                                 |
| \\      /  F ield         | OpenFOAM: The Open Source CFD Toolbox           |
|  \\    /   O peration     | Version:  2312                                  |
|   \\  /    A nd           | Website:  www.openfoam.com                      |
|    \\/     M anipulation  |                                                 |
\*---------------------------------------------------------------------------*/
FoamFile
{
    version     2.0;
    format      ascii;
    arch        "LSB;label=32;scalar=64";
    class       volScalarField;
    location    "3.9";
    object      T;
}
// * * * * * * * * * * * * * * * * * * * * * * * * * * * * * * * * * * * * * //

dimensions      [0 0 0 1 0 0 0];

internalField   nonuniform List<scalar> 
1000
(
1.76377e-81
2.81245e-81
5.57564e-81
1.17233e-80
2.49589e-80
5.32281e-80
1.13439e-79
2.41473e-79
5.13343e-79
1.08985e-78
2.31071e-78
4.89263e-78
1.03456e-77
2.18466e-77
4.60711e-77
9.70258e-77
2.04061e-76
4.28593e-76
8.98966e-76
1.88301e-75
3.93889e-75
8.22819e-75
1.7165e-74
3.57597e-74
7.43962e-74
1.54566e-73
3.20691e-73
6.64451e-73
1.37482e-72
2.84074e-72
5.86167e-72
1.20785e-71
2.48547e-71
5.10747e-71
1.0481e-70
2.14783e-70
4.39539e-70
8.9824e-70
1.8331e-69
3.73573e-69
7.6026e-69
1.54505e-68
3.1356e-68
6.35465e-68
1.28604e-67
2.59904e-67
5.2452e-67
1.05707e-66
2.12732e-66
4.27517e-66
8.57951e-66
1.71933e-65
3.44068e-65
6.87569e-65
1.37206e-64
2.73412e-64
5.44057e-64
1.08107e-63
2.14511e-63
4.25037e-63
8.40978e-63
1.66159e-62
3.27825e-62
6.45863e-62
1.27062e-61
2.49615e-61
4.89669e-61
9.59204e-61
1.87627e-60
3.66482e-60
7.148e-60
1.39216e-59
2.7075e-59
5.25797e-59
1.01962e-58
1.97438e-58
3.81761e-58
7.37091e-58
1.42108e-57
2.7358e-57
5.25915e-57
1.00951e-56
1.93497e-56
3.70341e-56
7.07769e-56
1.35066e-55
2.57371e-55
4.89707e-55
9.30407e-55
1.7651e-54
3.34368e-54
6.32468e-54
1.19457e-53
2.25288e-53
4.2425e-53
7.9774e-53
1.4978e-52
2.80804e-52
5.25658e-52
9.82553e-52
1.83383e-51
3.41755e-51
6.35945e-51
1.18161e-50
2.19218e-50
4.06093e-50
7.51143e-50
1.38728e-49
2.55831e-49
4.71072e-49
8.66092e-49
1.58995e-48
2.91438e-48
5.33397e-48
9.74755e-48
1.77861e-47
3.24044e-47
5.89478e-47
1.0707e-46
1.94181e-46
3.51625e-46
6.35755e-46
1.14772e-45
2.06877e-45
3.72327e-45
6.69065e-45
1.20045e-44
2.15056e-44
3.84671e-44
6.86999e-44
1.22504e-43
2.1811e-43
3.87727e-43
6.88182e-43
1.21957e-42
2.15791e-42
3.81229e-42
6.72453e-42
1.1843e-41
2.08248e-41
3.65614e-41
6.40892e-41
1.12167e-40
1.96005e-40
3.41968e-40
5.95693e-40
1.03604e-39
1.79906e-39
3.1191e-39
5.39918e-39
9.33125e-39
1.61015e-38
2.77398e-38
4.77147e-38
8.1943e-38
1.40502e-37
2.40525e-37
4.11101e-37
7.01526e-37
1.19521e-36
2.03308e-36
3.45278e-36
5.85446e-36
9.91083e-36
1.67508e-35
2.8266e-35
4.76207e-35
8.0099e-35
1.34511e-34
2.25523e-34
3.77504e-34
6.30885e-34
1.05263e-33
1.75347e-33
2.9162e-33
4.84208e-33
8.02675e-33
1.32844e-32
2.19501e-32
3.62097e-32
5.96354e-32
9.8056e-32
1.60966e-31
2.63805e-31
4.3164e-31
7.05096e-31
1.1499e-30
1.87224e-30
3.04332e-30
4.93876e-30
8.00154e-30
1.29423e-29
2.08994e-29
3.36929e-29
5.42281e-29
8.71347e-29
1.39778e-28
2.23854e-28
3.57906e-28
5.71284e-28
9.10357e-28
1.44827e-27
2.30018e-27
3.64712e-27
5.77314e-27
9.12323e-27
1.43932e-26
2.26694e-26
3.56446e-26
5.59524e-26
8.76827e-26
1.37176e-25
2.14246e-25
3.34053e-25
5.19978e-25
8.0802e-25
1.2535e-24
1.94131e-24
3.00143e-24
4.63262e-24
7.1382e-24
1.09803e-23
1.68617e-23
2.58494e-23
3.95603e-23
6.04408e-23
9.2185e-23
1.40362e-22
2.13352e-22
3.23744e-22
4.90416e-22
7.41623e-22
1.11959e-21
1.68728e-21
2.53847e-21
3.8125e-21
5.71612e-21
8.5555e-21
1.27833e-20
1.90673e-20
2.83914e-20
4.22023e-20
6.2623e-20
9.27642e-20
1.37175e-19
2.02497e-19
2.98407e-19
4.38981e-19
6.44656e-19
9.45052e-19
1.38302e-18
2.02044e-18
2.94649e-18
4.28952e-18
6.23382e-18
9.04361e-18
1.3097e-17
1.89339e-17
2.73243e-17
3.93639e-17
5.6609e-17
8.12666e-17
1.1646e-16
1.66601e-16
2.37912e-16
3.39149e-16
4.82615e-16
6.85561e-16
9.72133e-16
1.37607e-15
1.94441e-15
2.74263e-15
3.86172e-15
5.42783e-15
7.61558e-15
1.06662e-14
1.49124e-14
2.08121e-14
2.89944e-14
4.03219e-14
5.59753e-14
7.75676e-14
1.07298e-13
1.48159e-13
2.04218e-13
2.80986e-13
3.85924e-13
5.29108e-13
7.24121e-13
9.89241e-13
1.34902e-12
1.83636e-12
2.49528e-12
3.38457e-12
4.58259e-12
6.19356e-12
8.35585e-12
1.12528e-11
1.51271e-11
2.02987e-11
2.71895e-11
3.63541e-11
4.85205e-11
6.46421e-11
8.59656e-11
1.14117e-10
1.51216e-10
2.00014e-10
2.64082e-10
3.48046e-10
4.57878e-10
6.01283e-10
7.88179e-10
1.0313e-09
1.34698e-09
1.75612e-09
2.28539e-09
2.96881e-09
3.84962e-09
4.98273e-09
6.4377e-09
8.30248e-09
1.06881e-08
1.37342e-08
1.76165e-08
2.25553e-08
2.88265e-08
3.67744e-08
4.68288e-08
5.95241e-08
7.55238e-08
9.56505e-08
1.20921e-07
1.52591e-07
1.92206e-07
2.41667e-07
3.03304e-07
3.79971e-07
4.75154e-07
5.93102e-07
7.38985e-07
9.1908e-07
1.14099e-06
1.41391e-06
1.74893e-06
2.15941e-06
2.66139e-06
3.27411e-06
4.02059e-06
4.92831e-06
6.03001e-06
7.3646e-06
8.97827e-06
1.09257e-05
1.32714e-05
1.60915e-05
1.94755e-05
2.35285e-05
2.83735e-05
3.41542e-05
4.10383e-05
4.92209e-05
5.89282e-05
7.04225e-05
8.40068e-05
0.000100031
0.000118896
0.000141065
0.000167065
0.000197501
0.000233062
0.00027453
0.000322796
0.000378866
0.000443878
0.000519112
0.000606011
0.000706189
0.000821455
0.000953828
0.00110556
0.00127913
0.00147733
0.00170319
0.0019601
0.00225176
0.00258223
0.00295596
0.00337779
0.00385301
0.00438734
0.00498697
0.0056586
0.00640942
0.00724715
0.00818005
0.00921693
0.0103672
0.0116407
0.0130479
0.0146001
0.0163086
0.0181857
0.020244
0.0224967
0.0249573
0.0276398
0.0305586
0.0337285
0.0371642
0.040881
0.0448939
0.0492184
0.0538695
0.0588621
0.0642111
0.0699307
0.0760348
0.0825367
0.0894488
0.0967827
0.104549
0.112758
0.121417
0.130533
0.140113
0.15016
0.160676
0.171662
0.183117
0.195037
0.207418
0.220252
0.233529
0.24724
0.26137
0.275904
0.290824
0.306111
0.321744
0.337699
0.353951
0.370474
0.38724
0.404219
0.42138
0.438692
0.456122
0.473637
0.491203
0.508786
0.526351
0.543865
0.561294
0.578604
0.595763
0.612739
0.629501
0.646019
0.662266
0.678214
0.693839
0.709117
0.724025
0.738546
0.75266
0.766352
0.779607
0.792415
0.804765
0.81665
0.828064
0.839001
0.849461
0.859443
0.868947
0.877977
0.886536
0.894629
0.902263
0.909446
0.916184
0.922488
0.928366
0.933829
0.938886
0.943548
0.947826
0.951728
0.955266
0.958448
0.961285
0.963783
0.965951
0.967796
0.969323
0.970539
0.971447
0.972051
0.972352
0.972352
0.972051
0.971447
0.970539
0.969323
0.967796
0.965951
0.963783
0.961285
0.958448
0.955266
0.951728
0.947826
0.943548
0.938886
0.933829
0.928366
0.922488
0.916184
0.909446
0.902263
0.894629
0.886536
0.877977
0.868947
0.859443
0.849461
0.839001
0.828064
0.81665
0.804765
0.792415
0.779607
0.766352
0.75266
0.738546
0.724025
0.709117
0.693839
0.678214
0.662266
0.646019
0.629501
0.612739
0.595763
0.578604
0.561294
0.543865
0.526351
0.508786
0.491203
0.473637
0.456122
0.438692
0.42138
0.404219
0.38724
0.370474
0.353951
0.337699
0.321744
0.306111
0.290824
0.275904
0.26137
0.24724
0.233529
0.220252
0.207418
0.195037
0.183117
0.171662
0.160676
0.15016
0.140113
0.130533
0.121417
0.112758
0.104549
0.0967827
0.0894488
0.0825367
0.0760348
0.0699307
0.0642111
0.0588621
0.0538695
0.0492184
0.0448939
0.040881
0.0371642
0.0337285
0.0305586
0.0276398
0.0249573
0.0224967
0.020244
0.0181857
0.0163086
0.0146001
0.0130479
0.0116407
0.0103672
0.00921693
0.00818005
0.00724715
0.00640942
0.0056586
0.00498697
0.00438734
0.00385301
0.00337779
0.00295596
0.00258223
0.00225176
0.0019601
0.00170319
0.00147733
0.00127913
0.00110556
0.000953828
0.000821455
0.000706189
0.000606011
0.000519112
0.000443878
0.000378866
0.000322796
0.00027453
0.000233062
0.000197501
0.000167065
0.000141065
0.000118896
0.000100031
8.40068e-05
7.04225e-05
5.89282e-05
4.92209e-05
4.10383e-05
3.41542e-05
2.83735e-05
2.35285e-05
1.94755e-05
1.60915e-05
1.32714e-05
1.09257e-05
8.97827e-06
7.3646e-06
6.03001e-06
4.92831e-06
4.02059e-06
3.27411e-06
2.66139e-06
2.15941e-06
1.74893e-06
1.41391e-06
1.14099e-06
9.1908e-07
7.38985e-07
5.93102e-07
4.75154e-07
3.79971e-07
3.03304e-07
2.41667e-07
1.92206e-07
1.52591e-07
1.20921e-07
9.56505e-08
7.55238e-08
5.95241e-08
4.68288e-08
3.67744e-08
2.88265e-08
2.25553e-08
1.76165e-08
1.37342e-08
1.06881e-08
8.30248e-09
6.4377e-09
4.98273e-09
3.84962e-09
2.96881e-09
2.28539e-09
1.75612e-09
1.34698e-09
1.0313e-09
7.88179e-10
6.01283e-10
4.57878e-10
3.48046e-10
2.64082e-10
2.00014e-10
1.51216e-10
1.14117e-10
8.59656e-11
6.46421e-11
4.85205e-11
3.63541e-11
2.71895e-11
2.02987e-11
1.51271e-11
1.12528e-11
8.35585e-12
6.19356e-12
4.58259e-12
3.38457e-12
2.49528e-12
1.83636e-12
1.34902e-12
9.89241e-13
7.24121e-13
5.29108e-13
3.85924e-13
2.80986e-13
2.04218e-13
1.48159e-13
1.07298e-13
7.75676e-14
5.59753e-14
4.03219e-14
2.89944e-14
2.08121e-14
1.49124e-14
1.06662e-14
7.61558e-15
5.42783e-15
3.86172e-15
2.74263e-15
1.94441e-15
1.37607e-15
9.72133e-16
6.85561e-16
4.82615e-16
3.39149e-16
2.37912e-16
1.66601e-16
1.1646e-16
8.12666e-17
5.6609e-17
3.93639e-17
2.73243e-17
1.89339e-17
1.3097e-17
9.04361e-18
6.23382e-18
4.28952e-18
2.94649e-18
2.02044e-18
1.38302e-18
9.45052e-19
6.44656e-19
4.38981e-19
2.98407e-19
2.02497e-19
1.37175e-19
9.27642e-20
6.2623e-20
4.22023e-20
2.83914e-20
1.90673e-20
1.27833e-20
8.5555e-21
5.71612e-21
3.8125e-21
2.53847e-21
1.68728e-21
1.11959e-21
7.41623e-22
4.90416e-22
3.23744e-22
2.13352e-22
1.40362e-22
9.2185e-23
6.04408e-23
3.95603e-23
2.58494e-23
1.68617e-23
1.09803e-23
7.1382e-24
4.63262e-24
3.00143e-24
1.94131e-24
1.2535e-24
8.0802e-25
5.19978e-25
3.34053e-25
2.14246e-25
1.37176e-25
8.76827e-26
5.59524e-26
3.56446e-26
2.26694e-26
1.43932e-26
9.12323e-27
5.77314e-27
3.64712e-27
2.30018e-27
1.44827e-27
9.10357e-28
5.71284e-28
3.57906e-28
2.23854e-28
1.39778e-28
8.71347e-29
5.42281e-29
3.36929e-29
2.08994e-29
1.29423e-29
8.00154e-30
4.93876e-30
3.04332e-30
1.87224e-30
1.1499e-30
7.05096e-31
4.3164e-31
2.63805e-31
1.60966e-31
9.8056e-32
5.96354e-32
3.62097e-32
2.19501e-32
1.32844e-32
8.02675e-33
4.84208e-33
2.9162e-33
1.75347e-33
1.05263e-33
6.30885e-34
3.77504e-34
2.25523e-34
1.34511e-34
8.0099e-35
4.76207e-35
2.8266e-35
1.67508e-35
9.91083e-36
5.85446e-36
3.45278e-36
2.03308e-36
1.19521e-36
7.01526e-37
4.11101e-37
2.40525e-37
1.40502e-37
8.1943e-38
4.77147e-38
2.77398e-38
1.61015e-38
9.33125e-39
5.39918e-39
3.1191e-39
1.79906e-39
1.03604e-39
5.95693e-40
3.41968e-40
1.96005e-40
1.12167e-40
6.40892e-41
3.65614e-41
2.08248e-41
1.1843e-41
6.72453e-42
3.81229e-42
2.15791e-42
1.21957e-42
6.88182e-43
3.87727e-43
2.1811e-43
1.22504e-43
6.86999e-44
3.84671e-44
2.15056e-44
1.20045e-44
6.69065e-45
3.72327e-45
2.06877e-45
1.14772e-45
6.35755e-46
3.51625e-46
1.94181e-46
1.0707e-46
5.89478e-47
3.24044e-47
1.77861e-47
9.74755e-48
5.33397e-48
2.91438e-48
1.58995e-48
8.66092e-49
4.71072e-49
2.55831e-49
1.38728e-49
7.51143e-50
4.06093e-50
2.19218e-50
1.18161e-50
6.35945e-51
3.41755e-51
1.83383e-51
9.82553e-52
5.25658e-52
2.80804e-52
1.4978e-52
7.9774e-53
4.2425e-53
2.25288e-53
1.19457e-53
6.32468e-54
3.34368e-54
1.7651e-54
9.30407e-55
4.89707e-55
2.57371e-55
1.35066e-55
7.07769e-56
3.70341e-56
1.93497e-56
1.00951e-56
5.25915e-57
2.7358e-57
1.42108e-57
7.37091e-58
3.81761e-58
1.97438e-58
1.01962e-58
5.25797e-59
2.7075e-59
1.39216e-59
7.148e-60
3.66482e-60
1.87627e-60
9.59204e-61
4.89669e-61
2.49615e-61
1.27062e-61
6.45863e-62
3.27825e-62
1.66159e-62
8.40978e-63
4.25037e-63
2.14511e-63
1.08107e-63
5.44057e-64
2.73412e-64
1.37206e-64
6.87569e-65
3.44068e-65
1.71933e-65
8.57951e-66
4.27517e-66
2.12732e-66
1.05707e-66
5.2452e-67
2.59904e-67
1.28604e-67
6.35465e-68
3.1356e-68
1.54505e-68
7.6026e-69
3.73573e-69
1.8331e-69
8.9824e-70
4.39539e-70
2.14783e-70
1.0481e-70
5.10747e-71
2.48547e-71
1.20785e-71
5.86167e-72
2.84074e-72
1.37482e-72
6.64451e-73
3.20691e-73
1.54566e-73
7.43962e-74
3.57597e-74
1.7165e-74
8.22819e-75
3.93889e-75
1.88301e-75
8.98966e-76
4.28593e-76
2.04061e-76
9.70258e-77
4.60711e-77
2.18466e-77
1.03456e-77
4.89263e-78
2.31071e-78
1.08985e-78
5.13343e-79
2.41473e-79
1.13439e-79
5.32281e-80
2.49589e-80
1.17233e-80
5.57564e-81
2.81245e-81
1.76377e-81
)
;

boundaryField
{
    sides
    {
        type            zeroGradient;
    }
    empty
    {
        type            empty;
    }
}


// ************************************************************************* //
