/*--------------------------------*- C++ -*----------------------------------*\
| =========                 |                                                 |
| \\      /  F ield         | OpenFOAM: The Open Source CFD Toolbox           |
|  \\    /   O peration     | Version:  2312                                  |
|   \\  /    A nd           | Website:  www.openfoam.com                      |
|    \\/     M anipulation  |                                                 |
\*---------------------------------------------------------------------------*/
FoamFile
{
    version     2.0;
    format      ascii;
    arch        "LSB;label=32;scalar=64";
    class       volScalarField;
    location    "4.6";
    object      T;
}
// * * * * * * * * * * * * * * * * * * * * * * * * * * * * * * * * * * * * * //

dimensions      [0 0 0 1 0 0 0];

internalField   nonuniform List<scalar> 
1000
(
1.37316e-70
1.9921e-70
3.53173e-70
6.69625e-70
1.29286e-69
2.50603e-69
4.85828e-69
9.4102e-69
1.82063e-68
3.5182e-68
6.79026e-68
1.30893e-67
2.52006e-67
4.84583e-67
9.30652e-67
1.78512e-66
3.41988e-66
6.54355e-66
1.25048e-65
2.38671e-65
4.54968e-65
8.66205e-65
1.64709e-64
3.12805e-64
5.93316e-64
1.12397e-63
2.12657e-63
4.01845e-63
7.5839e-63
1.42949e-62
2.69105e-62
5.05961e-62
9.5009e-62
1.78182e-61
3.33745e-61
6.24333e-61
1.16645e-60
2.17655e-60
4.05621e-60
7.54952e-60
1.40335e-59
2.60533e-59
4.83064e-59
8.94526e-59
1.65435e-58
3.05568e-58
5.6368e-58
1.03849e-57
1.9108e-57
3.51132e-57
6.4442e-57
1.18116e-56
2.16218e-56
3.9529e-56
7.21738e-56
1.31608e-55
2.39677e-55
4.35922e-55
7.91824e-55
1.43644e-54
2.60245e-54
4.70884e-54
8.50906e-54
1.53563e-53
2.76773e-53
4.98192e-53
8.95578e-53
1.60784e-52
2.88282e-52
5.16205e-52
9.23123e-52
1.64865e-51
2.94054e-51
5.23788e-51
9.31782e-51
1.6554e-50
2.9371e-50
5.2043e-50
9.20945e-50
1.62754e-49
2.87247e-49
5.06298e-49
8.91214e-49
1.56669e-48
2.75047e-48
4.8223e-48
8.44354e-48
1.47645e-47
2.5783e-47
4.49645e-47
7.83118e-47
1.36209e-46
2.36593e-46
4.10411e-46
7.10976e-46
1.23001e-45
2.1251e-45
3.66664e-45
6.3179e-45
1.08716e-44
1.86823e-44
3.20613e-44
5.49473e-44
9.40429e-44
1.60738e-43
2.74362e-43
4.67672e-43
7.96106e-43
1.35335e-42
2.29754e-42
3.89515e-42
6.59469e-42
1.115e-41
1.88262e-41
3.17438e-41
5.34518e-41
8.98819e-41
1.50935e-40
2.53111e-40
4.23877e-40
7.08879e-40
1.18388e-39
1.97446e-39
3.28846e-39
5.46939e-39
9.08421e-39
1.50674e-38
2.49567e-38
4.12799e-38
6.81853e-38
1.12471e-37
1.85264e-37
3.04747e-37
5.00593e-37
8.21161e-37
1.34514e-36
2.20042e-36
3.59449e-36
5.86361e-36
9.55185e-36
1.55383e-35
2.52414e-35
4.09466e-35
6.63305e-35
1.07301e-34
1.73333e-34
2.7961e-34
4.50417e-34
7.24546e-34
1.16388e-33
1.86697e-33
2.99059e-33
4.78369e-33
7.64114e-33
1.21882e-32
1.94137e-32
3.08789e-32
4.90457e-32
7.77903e-32
1.23207e-31
1.94862e-31
3.07754e-31
4.85359e-31
7.64373e-31
1.20207e-30
1.88771e-30
2.9602e-30
4.63541e-30
7.24828e-30
1.13178e-29
1.76468e-29
2.74758e-29
4.27181e-29
6.63211e-29
1.02818e-28
1.5917e-28
2.46054e-28
3.79817e-28
5.85456e-28
9.01132e-28
1.38502e-27
2.12568e-27
3.25772e-27
4.98542e-27
7.61836e-27
1.1625e-26
1.77132e-26
2.69507e-26
4.09462e-26
6.21194e-26
9.41045e-26
1.42352e-25
2.15022e-25
3.24318e-25
4.88458e-25
7.34598e-25
1.10316e-24
1.65423e-24
2.47694e-24
3.70341e-24
5.52908e-24
8.24268e-24
1.22701e-23
1.82385e-23
2.70704e-23
4.01202e-23
5.93735e-23
8.77372e-23
1.2946e-22
1.90743e-22
2.80622e-22
4.12245e-22
6.04711e-22
8.85725e-22
1.29541e-21
1.8918e-21
2.75868e-21
4.01684e-21
5.84014e-21
8.4785e-21
1.22905e-20
1.77901e-20
2.57122e-20
3.71071e-20
5.34721e-20
7.694e-20
1.10543e-19
1.58585e-19
2.27167e-19
3.24924e-19
4.64055e-19
6.61772e-19
9.42319e-19
1.3398e-18
1.90208e-18
2.69631e-18
3.81645e-18
5.39385e-18
7.61178e-18
1.07256e-17
1.50906e-17
2.12001e-17
2.97382e-17
4.16524e-17
5.82521e-17
8.13446e-17
1.1342e-16
1.57906e-16
2.19509e-16
3.04684e-16
4.22271e-16
5.84355e-16
8.07432e-16
1.11398e-15
1.53459e-15
2.11081e-15
2.899e-15
3.97548e-15
5.44342e-15
7.4421e-15
1.01592e-14
1.38473e-14
1.88456e-14
2.56091e-14
3.4747e-14
4.70739e-14
6.36769e-14
8.60048e-14
1.15985e-13
1.56177e-13
2.09977e-13
2.81879e-13
3.77826e-13
5.05658e-13
6.75707e-13
9.01563e-13
1.20107e-12
1.59764e-12
2.12189e-12
2.81387e-12
3.72579e-12
4.92569e-12
6.50206e-12
8.56975e-12
1.12777e-11
1.48185e-11
1.94412e-11
2.54668e-11
3.33088e-11
4.34986e-11
5.67185e-11
7.38424e-11
9.59886e-11
1.24585e-10
1.61451e-10
2.08905e-10
2.69892e-10
3.48145e-10
4.48395e-10
5.76624e-10
7.40381e-10
9.49178e-10
1.21498e-09
1.55283e-09
1.98155e-09
2.52475e-09
3.21188e-09
4.07973e-09
5.17406e-09
6.55181e-09
8.28361e-09
1.0457e-08
1.31802e-08
1.6587e-08
2.08421e-08
2.61483e-08
3.27548e-08
4.09669e-08
5.11589e-08
6.37876e-08
7.94108e-08
9.87078e-08
1.22504e-07
1.51803e-07
1.87817e-07
2.32017e-07
2.86174e-07
3.52428e-07
4.3335e-07
5.32028e-07
6.52167e-07
7.98198e-07
9.75418e-07
1.19014e-06
1.44989e-06
1.7636e-06
2.14187e-06
2.59726e-06
3.1446e-06
3.80141e-06
4.58831e-06
5.52954e-06
6.65357e-06
7.99373e-06
9.58901e-06
1.14849e-05
1.37344e-05
1.63993e-05
1.95509e-05
2.32724e-05
2.76596e-05
3.28232e-05
3.88908e-05
4.60092e-05
5.43467e-05
6.40965e-05
7.54793e-05
8.8747e-05
0.000104187
0.000122125
0.000142932
0.000167028
0.000194887
0.000227045
0.000264105
0.000306745
0.000355724
0.000411895
0.000476208
0.000549724
0.000633623
0.000729217
0.000837957
0.00096145
0.00110147
0.00125997
0.0014391
0.0016412
0.00186887
0.0021249
0.00241238
0.00273462
0.00309525
0.00349818
0.00394763
0.00444817
0.00500469
0.00562242
0.006307
0.00706441
0.00790103
0.00882364
0.00983939
0.0109559
0.0121811
0.0135234
0.0149916
0.0165948
0.0183427
0.0202451
0.0223122
0.0245548
0.0269838
0.0296101
0.0324453
0.035501
0.0387889
0.0423208
0.0461086
0.0501642
0.0544994
0.0591259
0.0640551
0.0692982
0.0748661
0.0807691
0.0870172
0.0936197
0.100585
0.107921
0.115636
0.123734
0.132221
0.141102
0.150379
0.160054
0.170127
0.180598
0.191464
0.202722
0.214367
0.226392
0.238789
0.251548
0.264659
0.278109
0.291885
0.30597
0.320348
0.335001
0.34991
0.365054
0.380411
0.395959
0.411674
0.427532
0.443508
0.459575
0.475709
0.491882
0.508067
0.524239
0.540369
0.556433
0.572402
0.588252
0.603958
0.619494
0.634837
0.649963
0.664852
0.679482
0.693833
0.707886
0.721625
0.735033
0.748095
0.760799
0.773131
0.785083
0.796644
0.807806
0.818564
0.828911
0.838845
0.848361
0.857459
0.866137
0.874397
0.882239
0.889666
0.89668
0.903285
0.909485
0.915283
0.920686
0.925697
0.930322
0.934567
0.938436
0.941935
0.945068
0.94784
0.950255
0.952318
0.954031
0.955398
0.956421
0.957102
0.957443
0.957443
0.957102
0.956421
0.955398
0.954031
0.952318
0.950255
0.94784
0.945068
0.941935
0.938436
0.934567
0.930322
0.925697
0.920686
0.915283
0.909485
0.903285
0.89668
0.889666
0.882239
0.874397
0.866137
0.857459
0.848361
0.838845
0.828911
0.818564
0.807806
0.796644
0.785083
0.773131
0.760799
0.748095
0.735033
0.721625
0.707886
0.693833
0.679482
0.664852
0.649963
0.634837
0.619494
0.603958
0.588252
0.572402
0.556433
0.540369
0.524239
0.508067
0.491882
0.475709
0.459575
0.443508
0.427532
0.411674
0.395959
0.380411
0.365054
0.34991
0.335001
0.320348
0.30597
0.291885
0.278109
0.264659
0.251548
0.238789
0.226392
0.214367
0.202722
0.191464
0.180598
0.170127
0.160054
0.150379
0.141102
0.132221
0.123734
0.115636
0.107921
0.100585
0.0936197
0.0870172
0.0807691
0.0748661
0.0692982
0.0640551
0.0591259
0.0544994
0.0501642
0.0461086
0.0423208
0.0387889
0.035501
0.0324453
0.0296101
0.0269838
0.0245548
0.0223122
0.0202451
0.0183427
0.0165948
0.0149916
0.0135234
0.0121811
0.0109559
0.00983939
0.00882364
0.00790103
0.00706441
0.006307
0.00562242
0.00500469
0.00444817
0.00394763
0.00349818
0.00309525
0.00273462
0.00241238
0.0021249
0.00186887
0.0016412
0.0014391
0.00125997
0.00110147
0.00096145
0.000837957
0.000729217
0.000633623
0.000549724
0.000476208
0.000411895
0.000355724
0.000306745
0.000264105
0.000227045
0.000194887
0.000167028
0.000142932
0.000122125
0.000104187
8.8747e-05
7.54793e-05
6.40965e-05
5.43467e-05
4.60092e-05
3.88908e-05
3.28232e-05
2.76596e-05
2.32724e-05
1.95509e-05
1.63993e-05
1.37344e-05
1.14849e-05
9.58901e-06
7.99373e-06
6.65357e-06
5.52954e-06
4.58831e-06
3.80141e-06
3.1446e-06
2.59726e-06
2.14187e-06
1.7636e-06
1.44989e-06
1.19014e-06
9.75418e-07
7.98198e-07
6.52167e-07
5.32028e-07
4.3335e-07
3.52428e-07
2.86174e-07
2.32017e-07
1.87817e-07
1.51803e-07
1.22504e-07
9.87078e-08
7.94108e-08
6.37876e-08
5.11589e-08
4.09669e-08
3.27548e-08
2.61483e-08
2.08421e-08
1.6587e-08
1.31802e-08
1.0457e-08
8.28361e-09
6.55181e-09
5.17406e-09
4.07973e-09
3.21188e-09
2.52475e-09
1.98155e-09
1.55283e-09
1.21498e-09
9.49178e-10
7.40381e-10
5.76624e-10
4.48395e-10
3.48145e-10
2.69892e-10
2.08905e-10
1.61451e-10
1.24585e-10
9.59886e-11
7.38424e-11
5.67185e-11
4.34986e-11
3.33088e-11
2.54668e-11
1.94412e-11
1.48185e-11
1.12777e-11
8.56975e-12
6.50206e-12
4.92569e-12
3.72579e-12
2.81387e-12
2.12189e-12
1.59764e-12
1.20107e-12
9.01563e-13
6.75707e-13
5.05658e-13
3.77826e-13
2.81879e-13
2.09977e-13
1.56177e-13
1.15985e-13
8.60048e-14
6.36769e-14
4.70739e-14
3.4747e-14
2.56091e-14
1.88456e-14
1.38473e-14
1.01592e-14
7.4421e-15
5.44342e-15
3.97548e-15
2.899e-15
2.11081e-15
1.53459e-15
1.11398e-15
8.07432e-16
5.84355e-16
4.22271e-16
3.04684e-16
2.19509e-16
1.57906e-16
1.1342e-16
8.13446e-17
5.82521e-17
4.16524e-17
2.97382e-17
2.12001e-17
1.50906e-17
1.07256e-17
7.61178e-18
5.39385e-18
3.81645e-18
2.69631e-18
1.90208e-18
1.3398e-18
9.42319e-19
6.61772e-19
4.64055e-19
3.24924e-19
2.27167e-19
1.58585e-19
1.10543e-19
7.694e-20
5.34721e-20
3.71071e-20
2.57122e-20
1.77901e-20
1.22905e-20
8.4785e-21
5.84014e-21
4.01684e-21
2.75868e-21
1.8918e-21
1.29541e-21
8.85725e-22
6.04711e-22
4.12245e-22
2.80622e-22
1.90743e-22
1.2946e-22
8.77372e-23
5.93735e-23
4.01202e-23
2.70704e-23
1.82385e-23
1.22701e-23
8.24268e-24
5.52908e-24
3.70341e-24
2.47694e-24
1.65423e-24
1.10316e-24
7.34598e-25
4.88458e-25
3.24318e-25
2.15022e-25
1.42352e-25
9.41045e-26
6.21194e-26
4.09462e-26
2.69507e-26
1.77132e-26
1.1625e-26
7.61836e-27
4.98542e-27
3.25772e-27
2.12568e-27
1.38502e-27
9.01132e-28
5.85456e-28
3.79817e-28
2.46054e-28
1.5917e-28
1.02818e-28
6.63211e-29
4.27181e-29
2.74758e-29
1.76468e-29
1.13178e-29
7.24828e-30
4.63541e-30
2.9602e-30
1.88771e-30
1.20207e-30
7.64373e-31
4.85359e-31
3.07754e-31
1.94862e-31
1.23207e-31
7.77903e-32
4.90457e-32
3.08789e-32
1.94137e-32
1.21882e-32
7.64114e-33
4.78369e-33
2.99059e-33
1.86697e-33
1.16388e-33
7.24546e-34
4.50417e-34
2.7961e-34
1.73333e-34
1.07301e-34
6.63305e-35
4.09466e-35
2.52414e-35
1.55383e-35
9.55185e-36
5.86361e-36
3.59449e-36
2.20042e-36
1.34514e-36
8.21161e-37
5.00593e-37
3.04747e-37
1.85264e-37
1.12471e-37
6.81853e-38
4.12799e-38
2.49567e-38
1.50674e-38
9.08421e-39
5.46939e-39
3.28846e-39
1.97446e-39
1.18388e-39
7.08879e-40
4.23877e-40
2.53111e-40
1.50935e-40
8.98819e-41
5.34518e-41
3.17438e-41
1.88262e-41
1.115e-41
6.59469e-42
3.89515e-42
2.29754e-42
1.35335e-42
7.96106e-43
4.67672e-43
2.74362e-43
1.60738e-43
9.40429e-44
5.49473e-44
3.20613e-44
1.86823e-44
1.08716e-44
6.3179e-45
3.66664e-45
2.1251e-45
1.23001e-45
7.10976e-46
4.10411e-46
2.36593e-46
1.36209e-46
7.83118e-47
4.49645e-47
2.5783e-47
1.47645e-47
8.44354e-48
4.8223e-48
2.75047e-48
1.56669e-48
8.91214e-49
5.06298e-49
2.87247e-49
1.62754e-49
9.20945e-50
5.2043e-50
2.9371e-50
1.6554e-50
9.31782e-51
5.23788e-51
2.94054e-51
1.64865e-51
9.23123e-52
5.16205e-52
2.88282e-52
1.60784e-52
8.95578e-53
4.98192e-53
2.76773e-53
1.53563e-53
8.50906e-54
4.70884e-54
2.60245e-54
1.43644e-54
7.91824e-55
4.35922e-55
2.39677e-55
1.31608e-55
7.21738e-56
3.9529e-56
2.16218e-56
1.18116e-56
6.4442e-57
3.51132e-57
1.9108e-57
1.03849e-57
5.6368e-58
3.05568e-58
1.65435e-58
8.94526e-59
4.83064e-59
2.60533e-59
1.40335e-59
7.54952e-60
4.05621e-60
2.17655e-60
1.16645e-60
6.24333e-61
3.33745e-61
1.78182e-61
9.5009e-62
5.05961e-62
2.69105e-62
1.42949e-62
7.5839e-63
4.01845e-63
2.12657e-63
1.12397e-63
5.93316e-64
3.12805e-64
1.64709e-64
8.66205e-65
4.54968e-65
2.38671e-65
1.25048e-65
6.54355e-66
3.41988e-66
1.78512e-66
9.30652e-67
4.84583e-67
2.52006e-67
1.30893e-67
6.79026e-68
3.5182e-68
1.82063e-68
9.4102e-69
4.85828e-69
2.50603e-69
1.29286e-69
6.69625e-70
3.53173e-70
1.9921e-70
1.37316e-70
)
;

boundaryField
{
    sides
    {
        type            zeroGradient;
    }
    empty
    {
        type            empty;
    }
}


// ************************************************************************* //
