/*--------------------------------*- C++ -*----------------------------------*\
| =========                 |                                                 |
| \\      /  F ield         | OpenFOAM: The Open Source CFD Toolbox           |
|  \\    /   O peration     | Version:  2312                                  |
|   \\  /    A nd           | Website:  www.openfoam.com                      |
|    \\/     M anipulation  |                                                 |
\*---------------------------------------------------------------------------*/
FoamFile
{
    version     2.0;
    format      ascii;
    arch        "LSB;label=32;scalar=64";
    class       volScalarField;
    location    "2.6";
    object      T;
}
// * * * * * * * * * * * * * * * * * * * * * * * * * * * * * * * * * * * * * //

dimensions      [0 0 0 1 0 0 0];

internalField   nonuniform List<scalar> 
1000
(
4.90618e-10
4.92732e-10
4.9856e-10
5.0814e-10
5.21539e-10
5.38847e-10
5.60181e-10
5.85687e-10
6.15535e-10
6.49928e-10
6.89098e-10
7.33307e-10
7.82852e-10
8.38064e-10
8.99311e-10
9.67e-10
1.04158e-09
1.12354e-09
1.21343e-09
1.31183e-09
1.41938e-09
1.53679e-09
1.66482e-09
1.80429e-09
1.9561e-09
2.12122e-09
2.30071e-09
2.4957e-09
2.70743e-09
2.93724e-09
3.18655e-09
3.45693e-09
3.75005e-09
4.06773e-09
4.41192e-09
4.78472e-09
5.18841e-09
5.62544e-09
6.09844e-09
6.61026e-09
7.16394e-09
7.76279e-09
8.41036e-09
9.11044e-09
9.86715e-09
1.06849e-08
1.15684e-08
1.25228e-08
1.35536e-08
1.46666e-08
1.58682e-08
1.71652e-08
1.85649e-08
2.00751e-08
2.17042e-08
2.34613e-08
2.5356e-08
2.73988e-08
2.96007e-08
3.19738e-08
3.45309e-08
3.72856e-08
4.02528e-08
4.34482e-08
4.68886e-08
5.05923e-08
5.45785e-08
5.8868e-08
6.3483e-08
6.84473e-08
7.37863e-08
7.95272e-08
8.56991e-08
9.2333e-08
9.94623e-08
1.07122e-07
1.15351e-07
1.2419e-07
1.33681e-07
1.43871e-07
1.5481e-07
1.66549e-07
1.79147e-07
1.92661e-07
2.07158e-07
2.22704e-07
2.39373e-07
2.57243e-07
2.76396e-07
2.96921e-07
3.18912e-07
3.42469e-07
3.67698e-07
3.94715e-07
4.23638e-07
4.54598e-07
4.87731e-07
5.23183e-07
5.6111e-07
6.01675e-07
6.45056e-07
6.91438e-07
7.41019e-07
7.94011e-07
8.50637e-07
9.11134e-07
9.75755e-07
1.04477e-06
1.11846e-06
1.19713e-06
1.2811e-06
1.3707e-06
1.46631e-06
1.5683e-06
1.67708e-06
1.79307e-06
1.91674e-06
2.04856e-06
2.18905e-06
2.33874e-06
2.49822e-06
2.66808e-06
2.84897e-06
3.04157e-06
3.2466e-06
3.46482e-06
3.69703e-06
3.94408e-06
4.20687e-06
4.48636e-06
4.78353e-06
5.09947e-06
5.43528e-06
5.79214e-06
6.17131e-06
6.57411e-06
7.00191e-06
7.4562e-06
7.93852e-06
8.45049e-06
8.99384e-06
9.57039e-06
1.0182e-05
1.08308e-05
1.15188e-05
1.22483e-05
1.30216e-05
1.38412e-05
1.47097e-05
1.56299e-05
1.66046e-05
1.76369e-05
1.87299e-05
1.98871e-05
2.11119e-05
2.24081e-05
2.37795e-05
2.52303e-05
2.67647e-05
2.83873e-05
3.01028e-05
3.19162e-05
3.38326e-05
3.58576e-05
3.79969e-05
4.02565e-05
4.26427e-05
4.51622e-05
4.78219e-05
5.0629e-05
5.35912e-05
5.67163e-05
6.00129e-05
6.34895e-05
6.71553e-05
7.10199e-05
7.50933e-05
7.93859e-05
8.39087e-05
8.86731e-05
9.36911e-05
9.89751e-05
0.000104538
0.000110394
0.000116557
0.000123041
0.000129863
0.000137038
0.000144583
0.000152516
0.000160855
0.00016962
0.00017883
0.000188506
0.000198669
0.000209343
0.00022055
0.000232316
0.000244664
0.000257623
0.000271219
0.000285481
0.000300439
0.000316123
0.000332567
0.000349802
0.000367865
0.00038679
0.000406616
0.000427381
0.000449125
0.000471891
0.000495722
0.000520662
0.000546759
0.00057406
0.000602617
0.00063248
0.000663703
0.000696343
0.000730457
0.000766105
0.000803347
0.000842249
0.000882877
0.000925298
0.000969583
0.00101581
0.00106404
0.00111437
0.00116686
0.00122162
0.00127871
0.00133823
0.00140027
0.00146492
0.00153229
0.00160246
0.00167555
0.00175166
0.0018309
0.00191338
0.00199923
0.00208855
0.00218147
0.00227812
0.00237862
0.00248312
0.00259175
0.00270464
0.00282195
0.00294383
0.00307042
0.00320188
0.00333838
0.00348008
0.00362715
0.00377976
0.00393809
0.00410232
0.00427265
0.00444926
0.00463234
0.0048221
0.00501875
0.00522249
0.00543353
0.0056521
0.00587843
0.00611273
0.00635524
0.00660621
0.00686588
0.00713448
0.00741229
0.00769955
0.00799653
0.0083035
0.00862074
0.00894851
0.0092871
0.00963681
0.00999792
0.0103707
0.0107556
0.0111527
0.0115625
0.0119852
0.0124212
0.0128707
0.0133343
0.013812
0.0143044
0.0148117
0.0153344
0.0158726
0.0164269
0.0169976
0.017585
0.0181896
0.0188116
0.0194515
0.0201096
0.0207864
0.0214822
0.0221974
0.0229324
0.0236876
0.0244634
0.0252602
0.0260784
0.0269184
0.0277806
0.0286655
0.0295734
0.0305047
0.0314599
0.0324394
0.0334436
0.0344728
0.0355275
0.0366082
0.0377152
0.0388489
0.0400098
0.0411982
0.0424146
0.0436593
0.0449327
0.0462354
0.0475675
0.0489296
0.050322
0.051745
0.0531992
0.0546847
0.0562021
0.0577516
0.0593335
0.0609484
0.0625964
0.0642779
0.0659932
0.0677426
0.0695265
0.0713451
0.0731986
0.0750875
0.0770119
0.078972
0.0809682
0.0830006
0.0850695
0.087175
0.0893173
0.0914967
0.0937132
0.095967
0.0982582
0.100587
0.102953
0.105357
0.107799
0.110279
0.112796
0.115352
0.117945
0.120576
0.123244
0.125951
0.128695
0.131476
0.134295
0.13715
0.140043
0.142973
0.145939
0.148942
0.15198
0.155054
0.158164
0.161309
0.164489
0.167703
0.170951
0.174232
0.177547
0.180894
0.184273
0.187683
0.191125
0.194597
0.198099
0.201629
0.205189
0.208776
0.21239
0.21603
0.219696
0.223387
0.227101
0.230839
0.234599
0.238381
0.242182
0.246003
0.249843
0.2537
0.257574
0.261464
0.265367
0.269284
0.273214
0.277154
0.281105
0.285064
0.289031
0.293004
0.296983
0.300965
0.304951
0.308937
0.312924
0.31691
0.320893
0.324872
0.328846
0.332814
0.336773
0.340724
0.344663
0.34859
0.352504
0.356402
0.360284
0.364149
0.367993
0.371817
0.375619
0.379397
0.383149
0.386875
0.390572
0.39424
0.397877
0.401481
0.405051
0.408585
0.412082
0.415541
0.41896
0.422337
0.425672
0.428962
0.432207
0.435405
0.438554
0.441653
0.444701
0.447697
0.450639
0.453526
0.456356
0.459128
0.461842
0.464495
0.467088
0.469617
0.472083
0.474484
0.476819
0.479087
0.481287
0.483417
0.485478
0.487468
0.489385
0.49123
0.493001
0.494697
0.496318
0.497863
0.49933
0.50072
0.502032
0.503265
0.504419
0.505492
0.506485
0.507397
0.508227
0.508976
0.509642
0.510226
0.510726
0.511144
0.511478
0.511729
0.511897
0.51198
0.51198
0.511897
0.511729
0.511478
0.511144
0.510726
0.510226
0.509642
0.508976
0.508227
0.507397
0.506485
0.505492
0.504419
0.503265
0.502032
0.50072
0.49933
0.497863
0.496318
0.494697
0.493001
0.49123
0.489385
0.487468
0.485478
0.483417
0.481287
0.479087
0.476819
0.474484
0.472083
0.469617
0.467088
0.464495
0.461842
0.459128
0.456356
0.453526
0.450639
0.447697
0.444701
0.441653
0.438554
0.435405
0.432207
0.428962
0.425672
0.422337
0.41896
0.415541
0.412082
0.408585
0.405051
0.401481
0.397877
0.39424
0.390572
0.386875
0.383149
0.379397
0.375619
0.371817
0.367993
0.364149
0.360284
0.356402
0.352504
0.34859
0.344663
0.340724
0.336773
0.332814
0.328846
0.324872
0.320893
0.31691
0.312924
0.308937
0.304951
0.300965
0.296983
0.293004
0.289031
0.285064
0.281105
0.277154
0.273214
0.269284
0.265367
0.261464
0.257574
0.2537
0.249843
0.246003
0.242182
0.238381
0.234599
0.230839
0.227101
0.223387
0.219696
0.21603
0.21239
0.208776
0.205189
0.201629
0.198099
0.194597
0.191125
0.187683
0.184273
0.180894
0.177547
0.174232
0.170951
0.167703
0.164489
0.161309
0.158164
0.155054
0.15198
0.148942
0.145939
0.142973
0.140043
0.13715
0.134295
0.131476
0.128695
0.125951
0.123244
0.120576
0.117945
0.115352
0.112796
0.110279
0.107799
0.105357
0.102953
0.100587
0.0982582
0.095967
0.0937132
0.0914967
0.0893173
0.087175
0.0850695
0.0830006
0.0809682
0.078972
0.0770119
0.0750875
0.0731986
0.0713451
0.0695265
0.0677426
0.0659932
0.0642779
0.0625964
0.0609484
0.0593335
0.0577516
0.0562021
0.0546847
0.0531992
0.051745
0.050322
0.0489296
0.0475675
0.0462354
0.0449327
0.0436593
0.0424146
0.0411982
0.0400098
0.0388489
0.0377152
0.0366082
0.0355275
0.0344728
0.0334436
0.0324394
0.0314599
0.0305047
0.0295734
0.0286655
0.0277806
0.0269184
0.0260784
0.0252602
0.0244634
0.0236876
0.0229324
0.0221974
0.0214822
0.0207864
0.0201096
0.0194515
0.0188116
0.0181896
0.017585
0.0169976
0.0164269
0.0158726
0.0153344
0.0148117
0.0143044
0.013812
0.0133343
0.0128707
0.0124212
0.0119852
0.0115625
0.0111527
0.0107556
0.0103707
0.00999792
0.00963681
0.0092871
0.00894851
0.00862074
0.0083035
0.00799653
0.00769955
0.00741229
0.00713448
0.00686588
0.00660621
0.00635524
0.00611273
0.00587843
0.0056521
0.00543353
0.00522249
0.00501875
0.0048221
0.00463234
0.00444926
0.00427265
0.00410232
0.00393809
0.00377976
0.00362715
0.00348008
0.00333838
0.00320188
0.00307042
0.00294383
0.00282195
0.00270464
0.00259175
0.00248312
0.00237862
0.00227812
0.00218147
0.00208855
0.00199923
0.00191338
0.0018309
0.00175166
0.00167555
0.00160246
0.00153229
0.00146492
0.00140027
0.00133823
0.00127871
0.00122162
0.00116686
0.00111437
0.00106404
0.00101581
0.000969583
0.000925298
0.000882877
0.000842249
0.000803347
0.000766105
0.000730457
0.000696343
0.000663703
0.00063248
0.000602617
0.00057406
0.000546759
0.000520662
0.000495722
0.000471891
0.000449125
0.000427381
0.000406616
0.00038679
0.000367865
0.000349802
0.000332567
0.000316123
0.000300439
0.000285481
0.000271219
0.000257623
0.000244664
0.000232316
0.00022055
0.000209343
0.000198669
0.000188506
0.00017883
0.00016962
0.000160855
0.000152516
0.000144583
0.000137038
0.000129863
0.000123041
0.000116557
0.000110394
0.000104538
9.89751e-05
9.36911e-05
8.86731e-05
8.39087e-05
7.93859e-05
7.50933e-05
7.10199e-05
6.71553e-05
6.34895e-05
6.00129e-05
5.67163e-05
5.35912e-05
5.0629e-05
4.78219e-05
4.51622e-05
4.26427e-05
4.02565e-05
3.79969e-05
3.58576e-05
3.38326e-05
3.19162e-05
3.01028e-05
2.83873e-05
2.67647e-05
2.52303e-05
2.37795e-05
2.24081e-05
2.11119e-05
1.98871e-05
1.87299e-05
1.76369e-05
1.66046e-05
1.56299e-05
1.47097e-05
1.38412e-05
1.30216e-05
1.22483e-05
1.15188e-05
1.08308e-05
1.0182e-05
9.57039e-06
8.99384e-06
8.45049e-06
7.93852e-06
7.4562e-06
7.00191e-06
6.57411e-06
6.17131e-06
5.79214e-06
5.43528e-06
5.09947e-06
4.78353e-06
4.48636e-06
4.20687e-06
3.94408e-06
3.69703e-06
3.46482e-06
3.2466e-06
3.04157e-06
2.84897e-06
2.66808e-06
2.49822e-06
2.33874e-06
2.18905e-06
2.04856e-06
1.91674e-06
1.79307e-06
1.67708e-06
1.5683e-06
1.46631e-06
1.3707e-06
1.2811e-06
1.19713e-06
1.11846e-06
1.04477e-06
9.75755e-07
9.11134e-07
8.50637e-07
7.94011e-07
7.41019e-07
6.91438e-07
6.45056e-07
6.01675e-07
5.6111e-07
5.23183e-07
4.87731e-07
4.54598e-07
4.23638e-07
3.94715e-07
3.67698e-07
3.42469e-07
3.18912e-07
2.96921e-07
2.76396e-07
2.57243e-07
2.39373e-07
2.22704e-07
2.07158e-07
1.92661e-07
1.79147e-07
1.66549e-07
1.5481e-07
1.43871e-07
1.33681e-07
1.2419e-07
1.15351e-07
1.07122e-07
9.94623e-08
9.2333e-08
8.56991e-08
7.95272e-08
7.37863e-08
6.84473e-08
6.3483e-08
5.8868e-08
5.45785e-08
5.05923e-08
4.68886e-08
4.34482e-08
4.02528e-08
3.72856e-08
3.45309e-08
3.19738e-08
2.96007e-08
2.73988e-08
2.5356e-08
2.34613e-08
2.17042e-08
2.00751e-08
1.85649e-08
1.71652e-08
1.58682e-08
1.46666e-08
1.35536e-08
1.25228e-08
1.15684e-08
1.06849e-08
9.86715e-09
9.11044e-09
8.41036e-09
7.76279e-09
7.16394e-09
6.61026e-09
6.09844e-09
5.62544e-09
5.18841e-09
4.78472e-09
4.41192e-09
4.06773e-09
3.75005e-09
3.45693e-09
3.18655e-09
2.93724e-09
2.70743e-09
2.4957e-09
2.30071e-09
2.12122e-09
1.9561e-09
1.80429e-09
1.66482e-09
1.53679e-09
1.41938e-09
1.31183e-09
1.21343e-09
1.12354e-09
1.04158e-09
9.67e-10
8.99311e-10
8.38064e-10
7.82852e-10
7.33307e-10
6.89098e-10
6.49928e-10
6.15535e-10
5.85687e-10
5.60181e-10
5.38847e-10
5.21539e-10
5.0814e-10
4.9856e-10
4.92732e-10
4.90618e-10
)
;

boundaryField
{
    sides
    {
        type            zeroGradient;
    }
    empty
    {
        type            empty;
    }
}


// ************************************************************************* //
