/*--------------------------------*- C++ -*----------------------------------*\
| =========                 |                                                 |
| \\      /  F ield         | OpenFOAM: The Open Source CFD Toolbox           |
|  \\    /   O peration     | Version:  2312                                  |
|   \\  /    A nd           | Website:  www.openfoam.com                      |
|    \\/     M anipulation  |                                                 |
\*---------------------------------------------------------------------------*/
FoamFile
{
    version     2.0;
    format      ascii;
    arch        "LSB;label=32;scalar=64";
    class       volScalarField;
    location    "4.4";
    object      T;
}
// * * * * * * * * * * * * * * * * * * * * * * * * * * * * * * * * * * * * * //

dimensions      [0 0 0 1 0 0 0];

internalField   nonuniform List<scalar> 
1000
(
7.30941e-289
-7.69065e-289
6.64539e-288
-3.63937e-287
2.07388e-286
-1.17179e-285
6.60052e-285
-3.70426e-284
2.07128e-283
-1.15394e-282
6.40504e-282
-3.54201e-281
1.95146e-280
-1.07113e-279
5.85715e-279
-3.19072e-278
1.73156e-277
-9.36104e-277
5.04128e-276
-2.70445e-275
1.4452e-274
-7.69272e-274
4.07873e-273
-2.15404e-272
1.13307e-271
-5.93637e-271
3.09771e-270
-1.60992e-269
8.33303e-269
-4.29559e-268
2.20524e-267
-1.12743e-266
5.74004e-266
-2.91017e-265
1.46923e-264
-7.38614e-264
3.69734e-263
-1.84286e-262
9.14569e-262
-4.51905e-261
2.22317e-260
-1.08888e-259
5.3095e-259
-2.5774e-258
1.24552e-257
-5.99167e-257
2.86917e-256
-1.36761e-255
6.48858e-255
-3.06411e-254
1.44016e-253
-6.73675e-253
3.13625e-252
-1.45302e-251
6.69911e-251
-3.07348e-250
1.40311e-249
-6.37358e-249
2.88063e-248
-1.29534e-247
5.79495e-247
-2.5791e-246
1.14187e-245
-5.02891e-245
2.20302e-244
-9.599e-244
4.15981e-243
-1.79282e-242
7.68406e-242
-3.27499e-241
1.38793e-240
-5.84838e-240
2.45012e-239
-1.02045e-238
4.22493e-238
-1.73876e-237
7.11241e-237
-2.89149e-236
1.1682e-235
-4.68991e-235
1.87081e-234
-7.41433e-234
2.91911e-233
-1.14162e-232
4.43448e-232
-1.71067e-231
6.55301e-231
-2.4924e-230
9.41117e-230
-3.52744e-229
1.31223e-228
-4.84424e-228
1.77437e-227
-6.44756e-227
2.32382e-226
-8.30589e-226
2.94348e-225
-1.03404e-224
3.60011e-224
-1.24192e-223
4.24377e-223
-1.43606e-222
4.81083e-222
-1.59495e-221
5.2311e-221
-1.6966e-220
5.43884e-220
-1.72248e-219
5.3861e-219
-1.6618e-218
5.05526e-218
-1.51492e-217
4.46753e-217
-1.29494e-216
3.6837e-216
-1.02653e-215
2.79574e-215
-7.41857e-215
1.90999e-214
-4.74289e-214
1.12573e-213
-2.51602e-213
5.14904e-213
-9.04712e-213
1.09031e-212
6.00341e-213
-1.02773e-211
4.70409e-211
-1.64355e-210
4.97627e-210
-1.35358e-209
3.32642e-209
-7.25998e-209
1.32736e-208
-1.62698e-208
-9.29143e-209
1.52701e-207
-6.7303e-207
2.21642e-206
-6.14186e-206
1.46114e-205
-2.88219e-205
3.99995e-205
1.32964e-206
-2.69731e-204
1.25515e-203
-4.08799e-203
1.07805e-202
-2.31708e-202
3.64064e-202
-1.58717e-202
-1.65571e-201
8.61706e-201
-2.84798e-200
7.31657e-200
-1.45542e-199
1.79834e-199
1.39497e-199
-1.79679e-198
7.12153e-198
-2.00306e-197
4.26227e-197
-5.84591e-197
-1.88468e-197
4.61655e-196
-1.89822e-195
5.29043e-195
-1.07161e-194
1.22236e-194
1.64303e-194
-1.49474e-193
5.34446e-193
-1.31883e-192
2.17079e-192
-7.21491e-193
-1.08966e-191
5.04743e-191
-1.41707e-190
2.68449e-190
-2.09891e-190
-8.46959e-190
4.84e-189
-1.45099e-188
2.86098e-188
-2.43607e-188
-8.31094e-188
4.9201e-187
-1.45876e-186
2.74357e-186
-1.73651e-186
-1.04696e-185
5.26578e-185
-1.42382e-184
2.289e-184
1.48003e-188
-1.44607e-183
5.64299e-183
-1.28157e-182
1.40646e-182
2.6442e-182
-1.90061e-181
5.61096e-181
-9.45019e-181
6.68865e-182
5.67193e-180
-2.17807e-179
4.62014e-179
-3.64011e-179
-1.53237e-178
7.95132e-178
-1.97885e-177
2.31816e-177
3.83644e-177
-2.84098e-176
7.92972e-176
-1.10249e-175
-9.51479e-176
1.02479e-174
-3.06965e-174
4.57109e-174
2.80045e-174
-3.81203e-173
1.16539e-172
-1.72233e-172
-1.18788e-172
1.47235e-171
-4.35006e-171
5.89526e-171
6.55147e-171
-5.84946e-170
1.58197e-169
-1.75766e-169
-3.77514e-169
2.33832e-168
-5.48375e-168
3.91273e-168
2.05305e-167
-9.13319e-167
1.73846e-166
-1.06309e-167
-1.02227e-165
3.3642e-165
-4.60584e-165
-5.66597e-165
4.59358e-164
-1.11258e-163
7.31189e-164
4.42638e-163
-1.82424e-162
3.00288e-162
1.6989e-162
-2.33102e-161
6.12313e-161
-4.67005e-161
-2.25873e-160
9.62509e-160
-1.5398e-159
-1.15723e-159
1.26574e-158
-3.05761e-158
1.45312e-158
1.39826e-157
-4.94665e-157
6.03427e-157
1.20048e-156
-7.03813e-156
1.29949e-155
4.80062e-156
-9.06413e-155
2.26779e-154
-9.87356e-155
-1.06594e-153
3.53803e-153
-3.46338e-153
-1.13665e-152
5.14165e-152
-7.26113e-152
-1.06424e-151
7.1237e-151
-1.2772e-150
-7.86856e-151
9.56255e-150
-2.0508e-149
-2.37103e-150
1.26008e-148
-3.11619e-148
6.53035e-149
1.64934e-147
-4.5686e-147
1.94082e-147
2.16799e-146
-6.53834e-146
3.64854e-146
2.88937e-145
-9.19952e-145
5.71582e-145
3.93165e-144
-1.27737e-143
7.91234e-144
5.47867e-143
-1.75203e-142
9.68798e-143
7.80525e-142
-2.3696e-141
9.93276e-142
1.13021e-140
-3.14578e-140
6.62145e-141
1.64882e-139
-4.06673e-139
-3.66052e-140
2.39852e-138
-5.05449e-138
-2.62518e-138
3.44097e-137
-5.91235e-137
-6.88246e-137
4.81144e-136
-6.24892e-136
-1.41261e-135
6.46938e-135
-5.39043e-135
-2.54267e-134
8.21767e-134
-2.31345e-134
-4.1565e-133
9.59116e-133
4.33294e-133
-6.23014e-132
9.7356e-132
1.59986e-131
-8.52129e-131
7.33754e-131
3.36417e-130
-1.04203e-129
7.21962e-131
5.66402e-129
-1.08182e-128
-1.17097e-128
8.12213e-128
-8.10415e-128
-3.05234e-127
9.88125e-127
-4.70315e-128
-5.37311e-126
9.5358e-126
1.32747e-125
-7.50321e-125
5.33836e-125
3.23007e-124
-8.27946e-124
-4.11153e-124
5.20406e-123
-6.151e-123
-1.86023e-122
6.30959e-122
2.27257e-123
-3.4739e-121
5.24117e-121
1.08724e-120
-4.49636e-120
8.54517e-121
2.31084e-119
-3.8705e-119
-6.85096e-119
3.08351e-118
-7.18571e-119
-1.56153e-117
2.58136e-117
4.81585e-117
-2.05164e-116
2.09838e-117
1.07287e-115
-1.54558e-115
-3.70357e-115
1.31145e-114
2.82384e-115
-7.36446e-114
7.82118e-114
2.94456e-113
-7.81153e-113
-6.08816e-113
4.88712e-112
-2.62183e-112
-2.28036e-111
4.05647e-111
7.373e-111
-2.98601e-110
-5.21764e-111
1.63283e-109
-1.52332e-109
-6.93585e-109
1.54556e-108
2.00372e-108
-1.02042e-107
3.81079e-110
5.33754e-107
-5.38587e-107
-2.25393e-106
5.01454e-106
6.91248e-106
-3.26805e-105
-5.33062e-106
1.74714e-104
-1.31277e-104
-7.88136e-104
1.37537e-103
2.88212e-103
-9.57223e-103
-6.82066e-103
5.50055e-102
-9.67031e-103
-2.75263e-101
2.66428e-101
1.20701e-100
-2.2839e-100
-4.47767e-100
1.49694e-99
1.21148e-99
-8.49833e-99
-2.93027e-100
4.3493e-98
-2.74552e-98
-2.03178e-97
2.69143e-97
8.62242e-97
-1.89085e-96
-3.23238e-96
1.14477e-95
9.78165e-96
-6.31918e-95
-1.4881e-95
3.25886e-94
-9.38357e-95
-1.58888e-93
1.25014e-93
7.36254e-93
-9.67015e-93
-3.24413e-92
6.24537e-92
1.35306e-91
-3.66583e-91
-5.27632e-91
2.02405e-90
1.86951e-90
-1.07021e-89
-5.58089e-90
5.4779e-89
1.02111e-89
-2.73424e-88
2.9051e-89
1.3381e-87
-4.95769e-88
-6.44821e-87
3.96165e-87
3.07103e-86
-2.58593e-86
-1.45026e-85
1.52974e-85
6.81144e-85
-8.52578e-85
-3.19086e-84
4.56198e-84
1.49491e-83
-2.36835e-83
-7.02147e-83
1.20049e-82
3.3133e-82
-5.96451e-82
-1.57336e-81
2.91122e-81
7.5264e-81
-1.39734e-80
-3.62819e-80
6.59531e-80
1.76186e-79
-3.05761e-79
-8.60933e-79
1.38902e-78
4.22621e-78
-6.15806e-78
-2.07961e-77
2.64674e-77
1.02324e-76
-1.09069e-76
-5.02038e-76
4.22392e-76
2.44899e-75
-1.47422e-75
-1.18402e-74
4.1287e-75
5.65424e-74
-4.52903e-75
-2.65678e-73
-5.53079e-74
1.22268e-72
6.41268e-73
-5.4793e-72
-4.84083e-72
2.37209e-71
3.11063e-71
-9.80228e-71
-1.82156e-70
3.78881e-70
9.97896e-70
-1.31534e-69
-5.17136e-69
3.6829e-69
2.54433e-68
-4.61406e-69
-1.1866e-67
-3.91237e-68
5.2095e-67
4.55913e-67
-2.12124e-66
-3.2565e-66
7.76361e-66
1.9292e-65
-2.3611e-65
-1.01578e-64
4.32984e-65
4.85273e-64
1.19711e-64
-2.10174e-63
-1.9533e-63
8.07847e-63
1.43907e-62
-2.58592e-62
-8.29662e-62
5.40695e-62
4.09803e-61
7.23034e-62
-1.76265e-60
-1.70974e-60
6.43127e-60
1.27878e-59
-1.78152e-59
-7.12946e-59
1.76838e-59
3.28545e-58
2.1047e-58
-1.25225e-57
-2.05033e-57
3.59523e-57
1.22774e-56
-4.12166e-57
-5.73248e-56
-3.7416e-56
2.12018e-55
3.71935e-55
-5.43794e-55
-2.15781e-54
1.26593e-55
9.41972e-54
9.37267e-54
-3.04397e-53
-7.29686e-53
5.06787e-53
3.67604e-52
1.938e-52
-1.34703e-51
-2.35994e-51
2.99907e-51
1.34984e-50
3.20049e-51
-5.32366e-50
-7.75135e-50
1.30116e-49
4.85713e-49
5.56382e-50
-1.9669e-48
-2.71973e-48
4.74859e-48
1.74704e-47
2.95253e-48
-6.87895e-47
-1.03483e-46
1.46702e-46
6.26503e-46
2.47699e-46
-2.24414e-45
-4.13434e-45
3.4406e-45
2.18319e-44
1.69973e-44
-6.49095e-44
-1.63484e-43
2.58162e-44
7.036e-43
9.40391e-43
-1.44613e-42
-5.99272e-42
-3.27524e-42
1.91638e-41
4.28372e-41
-1.03122e-41
-1.88214e-40
-2.56628e-40
3.43748e-40
1.57762e-39
1.18432e-39
-4.34703e-39
-1.18508e-38
-2.38213e-39
4.29437e-38
8.1558e-38
-3.13981e-38
-3.74636e-37
-5.19525e-37
5.71881e-37
3.02954e-36
3.07319e-36
-6.39728e-36
-2.33299e-35
-1.68545e-35
6.01636e-35
1.74286e-34
8.54059e-35
-5.15453e-34
-1.28135e-33
-4.02616e-34
4.16028e-33
9.37786e-33
1.88465e-33
-3.21579e-32
-6.88944e-32
-1.09356e-32
2.39848e-31
5.10249e-31
9.8212e-32
-1.72776e-30
-3.80814e-30
-1.14277e-30
1.19557e-29
2.84888e-29
1.34713e-29
-7.83887e-29
-2.11576e-28
-1.48117e-28
4.73464e-28
1.53889e-27
1.50082e-27
-2.47177e-27
-1.07689e-26
-1.40362e-26
9.05771e-27
7.07296e-26
1.21125e-25
8.7895e-27
-4.18751e-25
-9.58231e-25
-6.23505e-25
2.04828e-24
6.83762e-24
8.1205e-24
-5.95665e-24
-4.24929e-23
-7.62983e-23
-2.53308e-23
2.10946e-22
5.8031e-22
6.15576e-22
-5.88869e-22
-3.54509e-21
-6.358e-21
-2.81736e-21
1.53336e-20
4.66758e-20
5.9906e-20
-1.5318e-20
-2.43364e-19
-5.4436e-19
-5.08896e-19
5.9734e-19
3.21661e-18
6.00712e-18
4.18611e-18
-9.72343e-18
-3.87005e-17
-6.57568e-17
-3.83834e-17
1.21025e-16
4.3947e-16
7.3519e-16
4.55703e-16
-1.23683e-15
-4.73958e-15
-8.41266e-15
-6.72572e-15
9.58681e-15
4.74005e-14
9.57175e-14
1.03931e-13
-2.80124e-14
-4.09507e-13
-1.0235e-12
-1.48687e-12
-8.19456e-13
2.45826e-12
9.3767e-12
1.82541e-11
2.13772e-11
2.63808e-12
-5.92167e-11
-1.74873e-10
-3.10842e-10
-3.42341e-10
-1.94951e-11
9.9221e-10
2.9046e-09
5.34462e-09
6.64542e-09
3.14797e-09
-1.08025e-08
-4.09564e-08
-8.78027e-08
-1.36588e-07
-1.43439e-07
-2.2576e-08
3.53422e-07
1.11941e-06
2.32094e-06
3.72591e-06
4.53233e-06
3.00614e-06
-3.82871e-06
-2.0187e-05
-5.07597e-05
-9.85346e-05
-0.00016035
-0.00021923
-0.000232616
-0.000115948
0.000278276
0.00118485
0.00295118
0.00605984
0.0111433
0.018985
0.0305017
0.0467016
0.0686186
0.0972212
0.133306
0.177383
0.229566
0.289492
0.356269
0.428482
0.504251
0.581343
0.657338
0.729818
0.796564
0.85574
0.906039
0.946768
0.977873
0.999887
1.01383
1.02108
1.02318
1.02168
1.01803
1.01345
1.00883
1.00481
1.0017
0.999604
0.998427
0.997991
0.998068
0.998441
0.998926
0.999393
0.999769
1.00002
1.00016
1.00021
1.00019
1.00014
1.00009
1.00004
1
0.999985
0.999978
0.99998
0.999985
0.999991
0.999997
1
1
1
1
1
1
1
1
1
1
1
1
1
1
1
1
1
1
1
1
1
1
1
1
1
1
1
1
1
1
0.999999
0.999998
0.999996
0.999995
0.999997
1
1.00002
1.00005
1.0001
1.00016
1.00022
1.00023
1.00012
0.999722
0.998815
0.997049
0.99394
0.988857
0.981015
0.969498
0.953298
0.931381
0.902779
0.866694
0.822617
0.770434
0.710508
0.643731
0.571518
0.495749
0.418657
0.342662
0.270182
0.203436
0.14426
0.0939613
0.0532315
0.0221272
0.000113042
-0.0138343
-0.021082
-0.0231766
-0.0216813
-0.0180345
-0.0134458
-0.00883421
-0.00481178
-0.00170488
0.000396327
0.00157299
0.00200939
0.00193152
0.00155911
0.00107431
0.000606566
0.000231153
-2.30067e-05
-0.000160466
-0.000205335
-0.000189097
-0.000141729
-8.6564e-05
-3.84522e-05
-4.33515e-06
1.48265e-05
2.16907e-05
2.04e-05
1.50311e-05
8.72242e-06
3.38645e-06
-1.76026e-07
-1.95686e-06
-2.37911e-06
-1.99616e-06
-1.29625e-06
-6.12418e-07
-1.12543e-07
1.64522e-07
2.5698e-07
2.32856e-07
1.57528e-07
7.75571e-08
1.73895e-08
-1.63463e-08
-2.77698e-08
-2.51936e-08
-1.66544e-08
-7.75776e-09
-1.30418e-09
2.08463e-09
3.02228e-09
2.53334e-09
1.5313e-09
6.00361e-10
-9.27621e-12
-2.81414e-10
-3.14237e-10
-2.28309e-10
-1.16427e-10
-2.90418e-11
1.89791e-11
3.37788e-11
2.90116e-11
1.72261e-11
6.31871e-12
-5.24561e-13
-3.27955e-12
-3.32699e-12
-2.19464e-12
-9.50307e-13
-9.26217e-14
2.9985e-13
3.57229e-13
2.53389e-13
1.19263e-13
2.08113e-14
-2.71864e-14
-3.68625e-14
-2.7235e-14
-1.32508e-14
-2.6721e-15
2.58235e-15
3.71554e-15
2.76244e-15
1.33358e-15
2.58555e-16
-2.64474e-16
-3.67729e-16
-2.65466e-16
-1.22157e-16
-1.8708e-17
2.86363e-17
3.55415e-17
2.4072e-17
1.00843e-17
7.18239e-19
-3.12224e-18
-3.31024e-18
-2.03643e-18
-7.28117e-19
5.8867e-20
3.27527e-19
2.91837e-19
1.57595e-19
4.25446e-20
-1.7441e-20
-3.20391e-20
-2.38505e-20
-1.07879e-20
-1.48325e-21
2.50109e-21
2.86098e-21
1.76076e-21
6.09432e-22
-6.32543e-23
-2.73912e-22
-2.28851e-22
-1.1292e-22
-2.27443e-23
1.87588e-23
2.49116e-23
1.59997e-23
5.80133e-24
-3.01331e-25
-2.26165e-24
-1.91635e-24
-9.34822e-25
-1.78467e-25
1.58757e-25
2.00407e-25
1.22958e-25
4.06783e-26
-5.51953e-27
-1.83782e-26
-1.4161e-26
-6.20281e-27
-6.92619e-28
1.4409e-27
1.49816e-27
5.72916e-28
)
;

boundaryField
{
    sides
    {
        type            zeroGradient;
    }
    empty
    {
        type            empty;
    }
}


// ************************************************************************* //
