/*--------------------------------*- C++ -*----------------------------------*\
| =========                 |                                                 |
| \\      /  F ield         | OpenFOAM: The Open Source CFD Toolbox           |
|  \\    /   O peration     | Version:  2312                                  |
|   \\  /    A nd           | Website:  www.openfoam.com                      |
|    \\/     M anipulation  |                                                 |
\*---------------------------------------------------------------------------*/
FoamFile
{
    version     2.0;
    format      ascii;
    arch        "LSB;label=32;scalar=64";
    class       volScalarField;
    location    "0.8";
    object      T;
}
// * * * * * * * * * * * * * * * * * * * * * * * * * * * * * * * * * * * * * //

dimensions      [0 0 0 1 0 0 0];

internalField   nonuniform List<scalar> 
1000
(
0
0
0
0
0
0
0
0
0
0
0
0
0
0
0
0
0
0
0
0
0
0
0
0
0
0
0
0
0
0
0
0
0
0
0
0
0
0
0
0
0
0
0
0
0
0
0
0
0
0
0
0
0
0
0
0
0
0
0
0
0
0
0
0
0
0
0
0
0
0
0
0
0
0
0
0
0
0
0
0
0
0
0
0
0
0
0
0
0
0
0
0
0
0
0
0
0
0
0
0
0
0
0
0
0
0
0
0
0
0
0
0
0
0
0
0
0
0
0
0
0
0
0
0
0
0
0
0
0
0
0
0
0
0
0
0
0
0
0
0
0
0
0
0
0
0
0
0
0
0
0
0
0
0
0
0
0
0
0
0
0
0
0
0
0
0
0
0
0
0
0
0
0
-4.94066e-324
2.96439e-323
-4.94066e-324
2.96439e-323
-4.94066e-324
2.96439e-323
-4.94066e-324
2.96439e-323
-4.94066e-324
2.96439e-323
-4.94066e-324
2.96439e-323
-4.94066e-324
2.96439e-323
-4.94066e-324
2.96439e-323
-4.94066e-324
2.96439e-323
-4.94066e-324
2.96439e-323
-4.94066e-324
2.96439e-323
-4.94066e-324
9.88131e-323
-1.09189e-321
1.4323e-320
-1.84049e-319
2.36789e-318
-3.04631e-317
3.91909e-316
-5.04192e-315
6.48645e-314
-8.34485e-313
1.07357e-311
-1.38115e-310
1.77686e-309
-2.28593e-308
2.94086e-307
-3.78343e-306
4.8674e-305
-6.26193e-304
8.056e-303
-1.03641e-301
1.33334e-300
-1.71535e-299
2.20681e-298
-2.83907e-297
3.65247e-296
-4.69892e-295
6.04518e-294
-7.77716e-293
1.00053e-291
-1.28719e-290
1.65598e-289
-2.13042e-288
2.7408e-287
-3.52605e-286
4.53628e-285
-5.83594e-284
7.50796e-283
-9.65902e-282
1.24264e-280
-1.59866e-279
2.05668e-278
-2.64593e-277
3.404e-276
-4.37926e-275
5.63393e-274
-7.24808e-273
9.32469e-272
-1.19963e-270
1.54332e-269
-1.98549e-268
2.55434e-267
-3.28617e-266
4.22768e-265
-5.43892e-264
6.9972e-263
-9.00193e-262
1.1581e-260
-1.4899e-259
1.91677e-258
-2.46593e-257
3.17243e-256
-4.08134e-255
5.25066e-254
-6.755e-253
8.69034e-252
-1.11802e-250
1.43833e-249
-1.85042e-248
2.38057e-247
-3.06262e-246
3.94007e-245
-5.06892e-244
6.52118e-243
-8.38953e-242
1.07932e-240
-1.38855e-239
1.78637e-238
-2.29817e-237
2.95661e-236
-3.80369e-235
4.89346e-234
-6.29546e-233
8.09914e-232
-1.04196e-230
1.34048e-229
-1.72454e-228
2.21862e-227
-2.85427e-226
3.67203e-225
-4.72408e-224
6.07755e-223
-7.8188e-222
1.00589e-220
-1.29408e-219
1.66484e-218
-2.14183e-217
2.75547e-216
-3.54493e-215
4.56056e-214
-5.86719e-213
7.54816e-212
-9.71074e-211
1.24929e-209
-1.60722e-208
2.06769e-207
-2.6601e-206
3.42222e-205
-4.40271e-204
5.6641e-203
-7.28689e-202
9.37461e-201
-1.20605e-199
1.55159e-198
-1.99612e-197
2.56802e-196
-3.30377e-195
4.25031e-194
-5.46804e-193
7.03466e-192
-9.05012e-191
1.1643e-189
-1.49788e-188
1.92703e-187
-2.47913e-186
3.18941e-185
-4.10319e-184
5.27878e-183
-6.79117e-182
8.73687e-181
-1.124e-179
1.44603e-178
-1.86033e-177
2.39332e-176
-3.07901e-175
3.96117e-174
-5.09606e-173
6.5561e-172
-8.43445e-171
1.0851e-169
-1.39598e-168
1.79593e-167
-2.31048e-166
2.97244e-165
-3.82406e-164
4.91966e-163
-6.32917e-162
8.1425e-161
-1.04754e-159
1.34766e-158
-1.73377e-157
2.2305e-156
-2.86955e-155
3.69169e-154
-4.74938e-153
6.11009e-152
-7.86066e-151
1.01128e-149
-1.30101e-148
1.67376e-147
-2.1533e-146
2.77023e-145
-3.56391e-144
4.58498e-143
-5.8986e-142
7.58857e-141
-9.76273e-140
1.25598e-138
-1.61582e-137
2.07876e-136
-2.67434e-135
3.44055e-134
-4.42628e-133
5.69443e-132
-7.3259e-131
9.42481e-130
-1.21251e-128
1.55989e-127
-2.00681e-126
2.58177e-125
-3.32146e-124
4.27307e-123
-5.49732e-122
7.07233e-121
-9.09858e-120
1.17054e-118
-1.5059e-117
1.93735e-116
-2.4924e-115
3.20649e-114
-4.12516e-113
5.30704e-112
-6.82753e-111
8.78364e-110
-1.13002e-108
1.45377e-107
-1.87029e-106
2.40613e-105
-3.0955e-104
3.98237e-103
-5.12334e-102
6.5912e-101
-8.47961e-100
1.09091e-98
-1.40345e-97
1.80555e-96
-2.32285e-95
2.98835e-94
-3.84453e-93
4.946e-92
-6.36306e-91
8.1861e-90
-1.05315e-88
1.35488e-87
-1.74305e-86
2.24245e-85
-2.88492e-84
3.71146e-83
-4.7748e-82
6.14281e-81
-7.90275e-80
1.01669e-78
-1.30798e-77
1.68272e-76
-2.16483e-75
2.78506e-74
-3.58299e-73
4.60953e-72
-5.93018e-71
7.6292e-70
-9.815e-69
1.2627e-67
-1.62447e-66
2.08989e-65
-2.68866e-64
3.45897e-63
-4.44998e-62
5.72492e-61
-7.36513e-60
9.47527e-59
-1.219e-57
1.56825e-56
-2.01755e-55
2.59559e-54
-3.33924e-53
4.29595e-52
-5.52676e-51
7.11019e-50
-9.1473e-49
1.1768e-47
-1.51396e-46
1.94772e-45
-2.50575e-44
-1.89555e-44
1.17839e-42
-2.42347e-42
-4.9508e-40
-1.14365e-38
-4.14849e-39
7.77662e-37
2.9437e-35
8.69398e-34
2.17215e-32
4.70132e-31
8.9557e-30
1.52009e-28
2.32182e-27
3.21748e-26
4.0727e-25
4.73626e-24
5.08534e-23
5.06279e-22
4.69099e-21
4.05848e-20
3.28807e-19
2.50099e-18
1.79005e-17
1.20806e-16
7.70148e-16
4.64557e-15
2.65536e-14
1.44014e-13
7.41993e-13
3.63562e-12
1.69573e-11
7.53549e-11
3.1928e-10
1.29073e-09
4.98144e-09
1.83636e-08
6.46892e-08
2.17839e-07
7.01446e-07
2.16025e-06
6.364e-06
1.79352e-05
4.83543e-05
0.000124706
0.000307612
0.000725584
0.00163611
0.0035254
0.00725563
0.0142551
0.0267184
0.0477392
0.0812461
0.131583
0.202604
0.296295
0.411182
0.541086
0.67496
0.798423
0.897048
0.961068
0.99089
0.998989
0.999961
1
1
1
1
1
1
1
1
1
1
1
1
1
1
1
1
1
1
1
1
1
1
1
1
1
1
1
1
1
1
1
1
1
1
1
1
1
1
1
1
1
1
1
1
1
1
1
1
1
1
1
1
1
1
1
1
1
1
1
1
1
1
1
1
1
1
1
1
1
1
1
1
1
0.999999
0.999998
0.999994
0.999982
0.999951
0.999875
0.999692
0.999273
0.99836
0.996467
0.99273
0.98572
0.973241
0.952197
0.91866
0.868288
0.79723
0.703507
0.5886
0.458696
0.324844
0.201423
0.102851
0.0388812
0.00909352
0.00100876
3.8394e-05
3.62185e-07
6.39123e-10
1.68654e-13
1.42358e-17
1.193e-21
9.97304e-26
8.34944e-30
7.01786e-34
5.92702e-38
5.02741e-42
4.27752e-46
3.64553e-50
3.10824e-54
2.64905e-58
2.25579e-62
1.91911e-66
1.63134e-70
1.38591e-74
1.17702e-78
9.99485e-83
8.48751e-87
7.20822e-91
6.12248e-95
5.20081e-99
4.41815e-103
3.75334e-107
3.18849e-111
2.70852e-115
2.30065e-119
1.95408e-123
1.6596e-127
1.40943e-131
1.19691e-135
1.01639e-139
8.63068e-144
7.32853e-148
6.22266e-152
5.28352e-156
4.48599e-160
3.80873e-164
3.23363e-168
2.74528e-172
2.3306e-176
1.9785e-180
1.67954e-184
1.4257e-188
1.21019e-192
1.02722e-196
8.71876e-201
7.4e-205
6.28047e-209
5.3301e-213
4.52337e-217
3.83859e-221
3.25735e-225
2.76401e-229
2.3453e-233
1.98993e-237
1.68835e-241
1.43241e-245
1.21523e-249
1.03093e-253
8.7455e-258
7.41861e-262
6.2928e-266
5.33762e-270
4.52725e-274
3.83977e-278
3.25655e-282
2.76181e-286
2.34214e-290
1.98616e-294
1.68422e-298
1.42812e-302
1.21092e-306
1.02671e-310
8.70487e-315
7.38006e-319
5.43472e-323
0
0
0
0
0
0
0
0
0
0
0
0
0
0
0
0
0
0
0
0
0
0
0
0
0
0
0
0
0
0
0
0
0
0
0
0
0
0
0
0
0
0
0
0
0
0
0
0
0
0
0
0
0
0
0
0
0
0
0
0
0
0
0
0
0
0
0
0
0
0
0
0
0
0
0
0
0
0
0
0
0
0
0
0
0
0
0
0
0
0
0
0
0
0
0
0
0
0
0
0
0
0
0
0
0
0
0
0
0
0
0
0
0
0
0
0
0
0
0
0
0
0
0
0
0
0
0
0
0
0
0
0
0
0
0
0
0
0
0
0
0
0
0
0
0
0
0
0
0
0
0
0
0
0
0
0
0
0
0
0
0
0
0
0
0
0
0
0
0
0
0
0
0
0
0
0
0
0
0
0
0
0
0
0
0
0
0
0
0
0
0
0
0
0
0
0
0
0
0
0
0
0
0
0
0
0
0
0
0
0
0
0
0
0
0
0
0
0
0
0
0
0
0
0
0
0
0
0
0
0
0
0
0
0
0
0
0
0
0
0
0
0
0
0
0
0
0
0
0
0
0
0
0
0
0
0
0
0
0
0
0
0
0
0
0
0
0
0
0
0
0
0
0
0
0
0
0
0
0
0
0
0
0
0
0
0
0
0
0
0
0
0
0
0
0
0
0
0
0
0
0
0
0
0
0
0
0
)
;

boundaryField
{
    sides
    {
        type            zeroGradient;
    }
    empty
    {
        type            empty;
    }
}


// ************************************************************************* //
