/*--------------------------------*- C++ -*----------------------------------*\
| =========                 |                                                 |
| \\      /  F ield         | OpenFOAM: The Open Source CFD Toolbox           |
|  \\    /   O peration     | Version:  2312                                  |
|   \\  /    A nd           | Website:  www.openfoam.com                      |
|    \\/     M anipulation  |                                                 |
\*---------------------------------------------------------------------------*/
FoamFile
{
    version     2.0;
    format      ascii;
    arch        "LSB;label=32;scalar=64";
    class       volScalarField;
    location    "1.8";
    object      T;
}
// * * * * * * * * * * * * * * * * * * * * * * * * * * * * * * * * * * * * * //

dimensions      [0 0 0 1 0 0 0];

internalField   nonuniform List<scalar> 
1000
(
8.56289e-14
8.63802e-14
8.8457e-14
9.18891e-14
9.67255e-14
1.03035e-13
1.10908e-13
1.20456e-13
1.31815e-13
1.45146e-13
1.60636e-13
1.78505e-13
1.99003e-13
2.22417e-13
2.49073e-13
2.79343e-13
3.13645e-13
3.52453e-13
3.96298e-13
4.45783e-13
5.01579e-13
5.64445e-13
6.3523e-13
7.14885e-13
8.04476e-13
9.05199e-13
1.01839e-12
1.14554e-12
1.28833e-12
1.44861e-12
1.62849e-12
1.83029e-12
2.05662e-12
2.31038e-12
2.59482e-12
2.91355e-12
3.27061e-12
3.67051e-12
4.11825e-12
4.61943e-12
5.18027e-12
5.8077e-12
6.50945e-12
7.29409e-12
8.1712e-12
9.1514e-12
1.02465e-11
1.14697e-11
1.28356e-11
1.43604e-11
1.60621e-11
1.79608e-11
2.00787e-11
2.24405e-11
2.50736e-11
2.80083e-11
3.12783e-11
3.4921e-11
3.89778e-11
4.34945e-11
4.85219e-11
5.41162e-11
6.03398e-11
6.72616e-11
7.49578e-11
8.35128e-11
9.30199e-11
1.03582e-10
1.15314e-10
1.2834e-10
1.42801e-10
1.5885e-10
1.76656e-10
1.96407e-10
2.18308e-10
2.42589e-10
2.695e-10
2.99317e-10
3.32347e-10
3.68925e-10
4.09422e-10
4.54245e-10
5.03843e-10
5.58711e-10
6.19392e-10
6.86483e-10
7.60643e-10
8.42593e-10
9.33128e-10
1.03312e-09
1.14353e-09
1.2654e-09
1.3999e-09
1.54829e-09
1.71196e-09
1.89243e-09
2.09138e-09
2.31065e-09
2.55223e-09
2.81833e-09
3.11136e-09
3.43395e-09
3.78901e-09
4.17967e-09
4.60941e-09
5.082e-09
5.60158e-09
6.17265e-09
6.80017e-09
7.48951e-09
8.24658e-09
9.07779e-09
9.99016e-09
1.09914e-08
1.20897e-08
1.32943e-08
1.46152e-08
1.6063e-08
1.76496e-08
1.93879e-08
2.12918e-08
2.33765e-08
2.56587e-08
2.81562e-08
3.08887e-08
3.38775e-08
3.71458e-08
4.07187e-08
4.46236e-08
4.88901e-08
5.35504e-08
5.86397e-08
6.41957e-08
7.02598e-08
7.68765e-08
8.40943e-08
9.19657e-08
1.00547e-07
1.09901e-07
1.20093e-07
1.31197e-07
1.43289e-07
1.56454e-07
1.70785e-07
1.86379e-07
2.03344e-07
2.21795e-07
2.41856e-07
2.63663e-07
2.87361e-07
3.13106e-07
3.41069e-07
3.71431e-07
4.04391e-07
4.40159e-07
4.78966e-07
5.21058e-07
5.667e-07
6.16178e-07
6.69801e-07
7.279e-07
7.9083e-07
8.58976e-07
9.3275e-07
1.01259e-06
1.09899e-06
1.19243e-06
1.29349e-06
1.40274e-06
1.52083e-06
1.64842e-06
1.78624e-06
1.93509e-06
2.09578e-06
2.26923e-06
2.45639e-06
2.65829e-06
2.87603e-06
3.11079e-06
3.36383e-06
3.6365e-06
3.93025e-06
4.24661e-06
4.58724e-06
4.95389e-06
5.34845e-06
5.77292e-06
6.22946e-06
6.72033e-06
7.24799e-06
7.81504e-06
8.42424e-06
9.07857e-06
9.78115e-06
1.05354e-05
1.13447e-05
1.22131e-05
1.31445e-05
1.41433e-05
1.5214e-05
1.63614e-05
1.75908e-05
1.89076e-05
2.03177e-05
2.18273e-05
2.34429e-05
2.51715e-05
2.70205e-05
2.89977e-05
3.11116e-05
3.33708e-05
3.57847e-05
3.83633e-05
4.11169e-05
4.40567e-05
4.71944e-05
5.05424e-05
5.41138e-05
5.79225e-05
6.19831e-05
6.63111e-05
7.09228e-05
7.58356e-05
8.10675e-05
8.66378e-05
9.25668e-05
9.88758e-05
0.000105587
0.000112725
0.000120314
0.000128381
0.000136953
0.000146059
0.000155731
0.000165999
0.000176899
0.000188466
0.000200737
0.000213751
0.000227551
0.000242178
0.000257679
0.0002741
0.000291493
0.00030991
0.000329404
0.000350035
0.000371861
0.000394946
0.000419356
0.000445159
0.000472428
0.000501238
0.000531667
0.000563798
0.000597717
0.000633513
0.000671279
0.000711114
0.000753118
0.000797398
0.000844064
0.000893231
0.000945019
0.000999552
0.00105696
0.00111738
0.00118095
0.00124781
0.00131812
0.00139204
0.00146972
0.00155134
0.00163708
0.00172711
0.00182162
0.00192081
0.00202489
0.00213406
0.00224854
0.00236856
0.00249434
0.00262613
0.00276419
0.00290875
0.0030601
0.0032185
0.00338424
0.0035576
0.0037389
0.00392843
0.00412652
0.0043335
0.00454971
0.00477548
0.00501119
0.0052572
0.00551389
0.00578165
0.00606087
0.00635197
0.00665536
0.00697149
0.00730078
0.00764369
0.00800069
0.00837226
0.00875887
0.00916102
0.00957922
0.010014
0.0104659
0.0109354
0.0114231
0.0119295
0.0124553
0.013001
0.0135672
0.0141545
0.0147635
0.0153949
0.0160493
0.0167273
0.0174296
0.0181568
0.0189097
0.0196889
0.0204951
0.021329
0.0221913
0.0230827
0.0240039
0.0249558
0.0259389
0.0269541
0.0280021
0.0290836
0.0301994
0.0313503
0.032537
0.0337603
0.035021
0.0363197
0.0376574
0.0390347
0.0404524
0.0419114
0.0434123
0.0449559
0.046543
0.0481743
0.0498506
0.0515726
0.0533411
0.0551568
0.0570203
0.0589324
0.0608938
0.0629052
0.0649673
0.0670806
0.0692459
0.0714637
0.0737347
0.0760595
0.0784386
0.0808725
0.0833619
0.0859071
0.0885087
0.0911672
0.0938829
0.0966563
0.0994877
0.102378
0.105326
0.108333
0.1114
0.114526
0.117712
0.120957
0.124263
0.127628
0.131053
0.134538
0.138083
0.141688
0.145352
0.149076
0.152859
0.156702
0.160602
0.164561
0.168578
0.172652
0.176783
0.180971
0.185214
0.189512
0.193865
0.198271
0.202729
0.20724
0.211802
0.216413
0.221073
0.225781
0.230536
0.235336
0.240181
0.245068
0.249997
0.254966
0.259974
0.265018
0.270099
0.275213
0.28036
0.285537
0.290743
0.295975
0.301233
0.306514
0.311816
0.317138
0.322476
0.327829
0.333196
0.338572
0.343958
0.349349
0.354744
0.360141
0.365537
0.37093
0.376317
0.381696
0.387064
0.392419
0.397758
0.403079
0.408379
0.413655
0.418906
0.424127
0.429318
0.434474
0.439594
0.444674
0.449712
0.454706
0.459652
0.464548
0.469391
0.474179
0.478909
0.483579
0.488185
0.492726
0.497198
0.501599
0.505926
0.510178
0.514352
0.518444
0.522453
0.526377
0.530213
0.533958
0.537611
0.54117
0.544631
0.547994
0.551256
0.554415
0.557469
0.560416
0.563255
0.565983
0.5686
0.571102
0.57349
0.575761
0.577913
0.579947
0.581859
0.58365
0.585317
0.586861
0.588279
0.589571
0.590736
0.591774
0.592684
0.593464
0.594115
0.594637
0.595028
0.59529
0.59542
0.59542
0.59529
0.595028
0.594637
0.594115
0.593464
0.592684
0.591774
0.590736
0.589571
0.588279
0.586861
0.585317
0.58365
0.581859
0.579947
0.577913
0.575761
0.57349
0.571102
0.5686
0.565983
0.563255
0.560416
0.557469
0.554415
0.551256
0.547994
0.544631
0.54117
0.537611
0.533958
0.530213
0.526377
0.522453
0.518444
0.514352
0.510178
0.505926
0.501599
0.497198
0.492726
0.488185
0.483579
0.478909
0.474179
0.469391
0.464548
0.459652
0.454706
0.449712
0.444674
0.439594
0.434474
0.429318
0.424127
0.418906
0.413655
0.408379
0.403079
0.397758
0.392419
0.387064
0.381696
0.376317
0.37093
0.365537
0.360141
0.354744
0.349349
0.343958
0.338572
0.333196
0.327829
0.322476
0.317138
0.311816
0.306514
0.301233
0.295975
0.290743
0.285537
0.28036
0.275213
0.270099
0.265018
0.259974
0.254966
0.249997
0.245068
0.240181
0.235336
0.230536
0.225781
0.221073
0.216413
0.211802
0.20724
0.202729
0.198271
0.193865
0.189512
0.185214
0.180971
0.176783
0.172652
0.168578
0.164561
0.160602
0.156702
0.152859
0.149076
0.145352
0.141688
0.138083
0.134538
0.131053
0.127628
0.124263
0.120957
0.117712
0.114526
0.1114
0.108333
0.105326
0.102378
0.0994877
0.0966563
0.0938829
0.0911672
0.0885087
0.0859071
0.0833619
0.0808725
0.0784386
0.0760595
0.0737347
0.0714637
0.0692459
0.0670806
0.0649673
0.0629052
0.0608938
0.0589324
0.0570203
0.0551568
0.0533411
0.0515726
0.0498506
0.0481743
0.046543
0.0449559
0.0434123
0.0419114
0.0404524
0.0390347
0.0376574
0.0363197
0.035021
0.0337603
0.032537
0.0313503
0.0301994
0.0290836
0.0280021
0.0269541
0.0259389
0.0249558
0.0240039
0.0230827
0.0221913
0.021329
0.0204951
0.0196889
0.0189097
0.0181568
0.0174296
0.0167273
0.0160493
0.0153949
0.0147635
0.0141545
0.0135672
0.013001
0.0124553
0.0119295
0.0114231
0.0109354
0.0104659
0.010014
0.00957922
0.00916102
0.00875887
0.00837226
0.00800069
0.00764369
0.00730078
0.00697149
0.00665536
0.00635197
0.00606087
0.00578165
0.00551389
0.0052572
0.00501119
0.00477548
0.00454971
0.0043335
0.00412652
0.00392843
0.0037389
0.0035576
0.00338424
0.0032185
0.0030601
0.00290875
0.00276419
0.00262613
0.00249434
0.00236856
0.00224854
0.00213406
0.00202489
0.00192081
0.00182162
0.00172711
0.00163708
0.00155134
0.00146972
0.00139204
0.00131812
0.00124781
0.00118095
0.00111738
0.00105696
0.000999552
0.000945019
0.000893231
0.000844064
0.000797398
0.000753118
0.000711114
0.000671279
0.000633513
0.000597717
0.000563798
0.000531667
0.000501238
0.000472428
0.000445159
0.000419356
0.000394946
0.000371861
0.000350035
0.000329404
0.00030991
0.000291493
0.0002741
0.000257679
0.000242178
0.000227551
0.000213751
0.000200737
0.000188466
0.000176899
0.000165999
0.000155731
0.000146059
0.000136953
0.000128381
0.000120314
0.000112725
0.000105587
9.88758e-05
9.25668e-05
8.66378e-05
8.10675e-05
7.58356e-05
7.09228e-05
6.63111e-05
6.19831e-05
5.79225e-05
5.41138e-05
5.05424e-05
4.71944e-05
4.40567e-05
4.11169e-05
3.83633e-05
3.57847e-05
3.33708e-05
3.11116e-05
2.89977e-05
2.70205e-05
2.51715e-05
2.34429e-05
2.18273e-05
2.03177e-05
1.89076e-05
1.75908e-05
1.63614e-05
1.5214e-05
1.41433e-05
1.31445e-05
1.22131e-05
1.13447e-05
1.05354e-05
9.78115e-06
9.07857e-06
8.42424e-06
7.81504e-06
7.24799e-06
6.72033e-06
6.22946e-06
5.77292e-06
5.34845e-06
4.95389e-06
4.58724e-06
4.24661e-06
3.93025e-06
3.6365e-06
3.36383e-06
3.11079e-06
2.87603e-06
2.65829e-06
2.45639e-06
2.26923e-06
2.09578e-06
1.93509e-06
1.78624e-06
1.64842e-06
1.52083e-06
1.40274e-06
1.29349e-06
1.19243e-06
1.09899e-06
1.01259e-06
9.3275e-07
8.58976e-07
7.9083e-07
7.279e-07
6.69801e-07
6.16178e-07
5.667e-07
5.21058e-07
4.78966e-07
4.40159e-07
4.04391e-07
3.71431e-07
3.41069e-07
3.13106e-07
2.87361e-07
2.63663e-07
2.41856e-07
2.21795e-07
2.03344e-07
1.86379e-07
1.70785e-07
1.56454e-07
1.43289e-07
1.31197e-07
1.20093e-07
1.09901e-07
1.00547e-07
9.19657e-08
8.40943e-08
7.68765e-08
7.02598e-08
6.41957e-08
5.86397e-08
5.35504e-08
4.88901e-08
4.46236e-08
4.07187e-08
3.71458e-08
3.38775e-08
3.08887e-08
2.81562e-08
2.56587e-08
2.33765e-08
2.12918e-08
1.93879e-08
1.76496e-08
1.6063e-08
1.46152e-08
1.32943e-08
1.20897e-08
1.09914e-08
9.99016e-09
9.07779e-09
8.24658e-09
7.48951e-09
6.80017e-09
6.17265e-09
5.60158e-09
5.082e-09
4.60941e-09
4.17967e-09
3.78901e-09
3.43395e-09
3.11136e-09
2.81833e-09
2.55223e-09
2.31065e-09
2.09138e-09
1.89243e-09
1.71196e-09
1.54829e-09
1.3999e-09
1.2654e-09
1.14353e-09
1.03312e-09
9.33128e-10
8.42593e-10
7.60643e-10
6.86483e-10
6.19392e-10
5.58711e-10
5.03843e-10
4.54245e-10
4.09422e-10
3.68925e-10
3.32347e-10
2.99317e-10
2.695e-10
2.42589e-10
2.18308e-10
1.96407e-10
1.76656e-10
1.5885e-10
1.42801e-10
1.2834e-10
1.15314e-10
1.03582e-10
9.30199e-11
8.35128e-11
7.49578e-11
6.72616e-11
6.03398e-11
5.41162e-11
4.85219e-11
4.34945e-11
3.89778e-11
3.4921e-11
3.12783e-11
2.80083e-11
2.50736e-11
2.24405e-11
2.00787e-11
1.79608e-11
1.60621e-11
1.43604e-11
1.28356e-11
1.14697e-11
1.02465e-11
9.1514e-12
8.1712e-12
7.29409e-12
6.50945e-12
5.8077e-12
5.18027e-12
4.61943e-12
4.11825e-12
3.67051e-12
3.27061e-12
2.91355e-12
2.59482e-12
2.31038e-12
2.05662e-12
1.83029e-12
1.62849e-12
1.44861e-12
1.28833e-12
1.14554e-12
1.01839e-12
9.05199e-13
8.04476e-13
7.14885e-13
6.3523e-13
5.64445e-13
5.01579e-13
4.45783e-13
3.96298e-13
3.52453e-13
3.13645e-13
2.79343e-13
2.49073e-13
2.22417e-13
1.99003e-13
1.78505e-13
1.60636e-13
1.45146e-13
1.31815e-13
1.20456e-13
1.10908e-13
1.03035e-13
9.67255e-14
9.18891e-14
8.8457e-14
8.63802e-14
8.56289e-14
)
;

boundaryField
{
    sides
    {
        type            zeroGradient;
    }
    empty
    {
        type            empty;
    }
}


// ************************************************************************* //
