/*--------------------------------*- C++ -*----------------------------------*\
| =========                 |                                                 |
| \\      /  F ield         | OpenFOAM: The Open Source CFD Toolbox           |
|  \\    /   O peration     | Version:  2312                                  |
|   \\  /    A nd           | Website:  www.openfoam.com                      |
|    \\/     M anipulation  |                                                 |
\*---------------------------------------------------------------------------*/
FoamFile
{
    version     2.0;
    format      ascii;
    arch        "LSB;label=32;scalar=64";
    class       volScalarField;
    location    "2.8";
    object      T;
}
// * * * * * * * * * * * * * * * * * * * * * * * * * * * * * * * * * * * * * //

dimensions      [0 0 0 1 0 0 0];

internalField   nonuniform List<scalar> 
1000
(
2.00441e-09
2.01189e-09
2.03249e-09
2.06634e-09
2.11363e-09
2.17464e-09
2.24972e-09
2.33931e-09
2.44394e-09
2.5642e-09
2.7008e-09
2.85451e-09
3.02623e-09
3.21695e-09
3.42775e-09
3.65983e-09
3.91454e-09
4.1933e-09
4.49769e-09
4.82944e-09
5.19041e-09
5.58261e-09
6.00824e-09
6.46967e-09
6.96944e-09
7.51031e-09
8.09525e-09
8.72745e-09
9.41037e-09
1.01477e-08
1.09434e-08
1.18018e-08
1.27274e-08
1.37252e-08
1.48004e-08
1.59588e-08
1.72064e-08
1.85497e-08
1.99957e-08
2.15518e-08
2.32262e-08
2.50274e-08
2.69645e-08
2.90474e-08
3.12865e-08
3.36932e-08
3.62795e-08
3.90582e-08
4.2043e-08
4.52488e-08
4.86911e-08
5.23867e-08
5.63535e-08
6.06108e-08
6.51789e-08
7.00795e-08
7.53361e-08
8.09734e-08
8.70179e-08
9.34979e-08
1.00443e-07
1.07887e-07
1.15862e-07
1.24406e-07
1.33557e-07
1.43357e-07
1.5385e-07
1.65084e-07
1.77107e-07
1.89974e-07
2.0374e-07
2.18468e-07
2.3422e-07
2.51065e-07
2.69076e-07
2.8833e-07
3.08909e-07
3.30901e-07
3.54398e-07
3.79499e-07
4.06309e-07
4.34938e-07
4.65506e-07
4.98138e-07
5.32966e-07
5.70133e-07
6.09788e-07
6.52089e-07
6.97207e-07
7.4532e-07
7.96618e-07
8.51302e-07
9.09584e-07
9.71692e-07
1.03786e-06
1.10835e-06
1.18343e-06
1.26338e-06
1.3485e-06
1.43911e-06
1.53554e-06
1.63816e-06
1.74735e-06
1.86349e-06
1.98701e-06
2.11837e-06
2.25802e-06
2.40647e-06
2.56425e-06
2.7319e-06
2.91002e-06
3.09924e-06
3.30019e-06
3.51358e-06
3.74013e-06
3.98061e-06
4.23583e-06
4.50666e-06
4.79399e-06
5.09877e-06
5.42201e-06
5.76476e-06
6.12815e-06
6.51333e-06
6.92155e-06
7.35411e-06
7.81238e-06
8.2978e-06
8.81188e-06
9.35623e-06
9.93253e-06
1.05425e-05
1.11881e-05
1.18712e-05
1.25939e-05
1.33583e-05
1.41667e-05
1.50215e-05
1.59251e-05
1.68803e-05
1.78897e-05
1.89563e-05
2.00831e-05
2.12732e-05
2.25301e-05
2.38572e-05
2.52582e-05
2.67369e-05
2.82975e-05
2.9944e-05
3.16811e-05
3.35132e-05
3.54453e-05
3.74824e-05
3.96299e-05
4.18934e-05
4.42787e-05
4.67919e-05
4.94394e-05
5.22279e-05
5.51643e-05
5.82561e-05
6.15107e-05
6.49362e-05
6.85409e-05
7.23335e-05
7.63231e-05
8.05192e-05
8.49317e-05
8.95709e-05
9.44475e-05
9.95729e-05
0.000104959
0.000110617
0.000116561
0.000122804
0.000129359
0.000136242
0.000143466
0.000151048
0.000159004
0.000167351
0.000176106
0.000185288
0.000194917
0.000205011
0.000215592
0.00022668
0.000238299
0.000250472
0.000263222
0.000276575
0.000290556
0.000305193
0.000320514
0.000336547
0.000353323
0.000370873
0.000389229
0.000408426
0.000428497
0.00044948
0.000471411
0.00049433
0.000518276
0.000543291
0.000569418
0.000596702
0.000625188
0.000654925
0.000685962
0.00071835
0.000752141
0.00078739
0.000824153
0.000862489
0.000902457
0.00094412
0.000987542
0.00103279
0.00107993
0.00112903
0.00118017
0.00123342
0.00128885
0.00134656
0.00140661
0.0014691
0.00153411
0.00160172
0.00167204
0.00174516
0.00182117
0.00190018
0.00198228
0.00206759
0.00215621
0.00224826
0.00234384
0.00244309
0.00254611
0.00265304
0.002764
0.00287913
0.00299855
0.00312241
0.00325085
0.00338401
0.00352204
0.00366509
0.00381333
0.0039669
0.00412597
0.00429072
0.0044613
0.00463791
0.0048207
0.00500987
0.00520561
0.0054081
0.00561755
0.00583414
0.00605808
0.00628958
0.00652885
0.00677611
0.00703158
0.00729548
0.00756803
0.00784948
0.00814005
0.00843999
0.00874955
0.00906897
0.0093985
0.00973842
0.010089
0.0104504
0.010823
0.0112071
0.0116029
0.0120107
0.0124308
0.0128635
0.0133091
0.0137679
0.0142401
0.0147262
0.0152263
0.0157409
0.0162701
0.0168145
0.0173742
0.0179496
0.018541
0.0191488
0.0197733
0.0204148
0.0210738
0.0217504
0.0224451
0.0231583
0.0238902
0.0246412
0.0254117
0.0262021
0.0270126
0.0278437
0.0286957
0.029569
0.0304639
0.0313808
0.0323201
0.0332821
0.0342671
0.0352757
0.036308
0.0373645
0.0384455
0.0395514
0.0406825
0.0418392
0.0430218
0.0442308
0.0454664
0.0467289
0.0480188
0.0493363
0.0506818
0.0520556
0.0534581
0.0548895
0.0563502
0.0578404
0.0593605
0.0609108
0.0624915
0.0641029
0.0657454
0.0674191
0.0691243
0.0708613
0.0726303
0.0744316
0.0762653
0.0781317
0.0800309
0.0819632
0.0839288
0.0859277
0.0879602
0.0900264
0.0921265
0.0942605
0.0964285
0.0986307
0.100867
0.103138
0.105443
0.107782
0.110156
0.112564
0.115006
0.117483
0.119994
0.122539
0.125119
0.127732
0.13038
0.133061
0.135775
0.138524
0.141305
0.144119
0.146967
0.149846
0.152758
0.155702
0.158678
0.161685
0.164723
0.167791
0.17089
0.174019
0.177177
0.180363
0.183578
0.186822
0.190092
0.193389
0.196713
0.200062
0.203436
0.206835
0.210257
0.213702
0.21717
0.220659
0.22417
0.2277
0.23125
0.234818
0.238404
0.242007
0.245626
0.24926
0.252909
0.25657
0.260244
0.263929
0.267625
0.27133
0.275043
0.278764
0.282491
0.286223
0.289959
0.293698
0.297439
0.301181
0.304922
0.308662
0.312399
0.316132
0.31986
0.323582
0.327296
0.331002
0.334697
0.338381
0.342052
0.34571
0.349352
0.352978
0.356587
0.360176
0.363745
0.367293
0.370818
0.374319
0.377794
0.381242
0.384663
0.388054
0.391414
0.394743
0.398038
0.401299
0.404523
0.407711
0.410861
0.41397
0.417039
0.420066
0.42305
0.425989
0.428882
0.431728
0.434526
0.437275
0.439974
0.442621
0.445215
0.447755
0.45024
0.45267
0.455042
0.457357
0.459612
0.461808
0.463942
0.466015
0.468025
0.469971
0.471853
0.47367
0.47542
0.477103
0.478719
0.480266
0.481745
0.483153
0.484491
0.485758
0.486954
0.488078
0.489128
0.490106
0.491011
0.491841
0.492597
0.493279
0.493886
0.494417
0.494873
0.495253
0.495558
0.495786
0.495938
0.496015
0.496015
0.495938
0.495786
0.495558
0.495253
0.494873
0.494417
0.493886
0.493279
0.492597
0.491841
0.491011
0.490106
0.489128
0.488078
0.486954
0.485758
0.484491
0.483153
0.481745
0.480266
0.478719
0.477103
0.47542
0.47367
0.471853
0.469971
0.468025
0.466015
0.463942
0.461808
0.459612
0.457357
0.455042
0.45267
0.45024
0.447755
0.445215
0.442621
0.439974
0.437275
0.434526
0.431728
0.428882
0.425989
0.42305
0.420066
0.417039
0.41397
0.410861
0.407711
0.404523
0.401299
0.398038
0.394743
0.391414
0.388054
0.384663
0.381242
0.377794
0.374319
0.370818
0.367293
0.363745
0.360176
0.356587
0.352978
0.349352
0.34571
0.342052
0.338381
0.334697
0.331002
0.327296
0.323582
0.31986
0.316132
0.312399
0.308662
0.304922
0.301181
0.297439
0.293698
0.289959
0.286223
0.282491
0.278764
0.275043
0.27133
0.267625
0.263929
0.260244
0.25657
0.252909
0.24926
0.245626
0.242007
0.238404
0.234818
0.23125
0.2277
0.22417
0.220659
0.21717
0.213702
0.210257
0.206835
0.203436
0.200062
0.196713
0.193389
0.190092
0.186822
0.183578
0.180363
0.177177
0.174019
0.17089
0.167791
0.164723
0.161685
0.158678
0.155702
0.152758
0.149846
0.146967
0.144119
0.141305
0.138524
0.135775
0.133061
0.13038
0.127732
0.125119
0.122539
0.119994
0.117483
0.115006
0.112564
0.110156
0.107782
0.105443
0.103138
0.100867
0.0986307
0.0964285
0.0942605
0.0921265
0.0900264
0.0879602
0.0859277
0.0839288
0.0819632
0.0800309
0.0781317
0.0762653
0.0744316
0.0726303
0.0708613
0.0691243
0.0674191
0.0657454
0.0641029
0.0624915
0.0609108
0.0593605
0.0578404
0.0563502
0.0548895
0.0534581
0.0520556
0.0506818
0.0493363
0.0480188
0.0467289
0.0454664
0.0442308
0.0430218
0.0418392
0.0406825
0.0395514
0.0384455
0.0373645
0.036308
0.0352757
0.0342671
0.0332821
0.0323201
0.0313808
0.0304639
0.029569
0.0286957
0.0278437
0.0270126
0.0262021
0.0254117
0.0246412
0.0238902
0.0231583
0.0224451
0.0217504
0.0210738
0.0204148
0.0197733
0.0191488
0.018541
0.0179496
0.0173742
0.0168145
0.0162701
0.0157409
0.0152263
0.0147262
0.0142401
0.0137679
0.0133091
0.0128635
0.0124308
0.0120107
0.0116029
0.0112071
0.010823
0.0104504
0.010089
0.00973842
0.0093985
0.00906897
0.00874955
0.00843999
0.00814005
0.00784948
0.00756803
0.00729548
0.00703158
0.00677611
0.00652885
0.00628958
0.00605808
0.00583414
0.00561755
0.0054081
0.00520561
0.00500987
0.0048207
0.00463791
0.0044613
0.00429072
0.00412597
0.0039669
0.00381333
0.00366509
0.00352204
0.00338401
0.00325085
0.00312241
0.00299855
0.00287913
0.002764
0.00265304
0.00254611
0.00244309
0.00234384
0.00224826
0.00215621
0.00206759
0.00198228
0.00190018
0.00182117
0.00174516
0.00167204
0.00160172
0.00153411
0.0014691
0.00140661
0.00134656
0.00128885
0.00123342
0.00118017
0.00112903
0.00107993
0.00103279
0.000987542
0.00094412
0.000902457
0.000862489
0.000824153
0.00078739
0.000752141
0.00071835
0.000685962
0.000654925
0.000625188
0.000596702
0.000569418
0.000543291
0.000518276
0.00049433
0.000471411
0.00044948
0.000428497
0.000408426
0.000389229
0.000370873
0.000353323
0.000336547
0.000320514
0.000305193
0.000290556
0.000276575
0.000263222
0.000250472
0.000238299
0.00022668
0.000215592
0.000205011
0.000194917
0.000185288
0.000176106
0.000167351
0.000159004
0.000151048
0.000143466
0.000136242
0.000129359
0.000122804
0.000116561
0.000110617
0.000104959
9.95729e-05
9.44475e-05
8.95709e-05
8.49317e-05
8.05192e-05
7.63231e-05
7.23335e-05
6.85409e-05
6.49362e-05
6.15107e-05
5.82561e-05
5.51643e-05
5.22279e-05
4.94394e-05
4.67919e-05
4.42787e-05
4.18934e-05
3.96299e-05
3.74824e-05
3.54453e-05
3.35132e-05
3.16811e-05
2.9944e-05
2.82975e-05
2.67369e-05
2.52582e-05
2.38572e-05
2.25301e-05
2.12732e-05
2.00831e-05
1.89563e-05
1.78897e-05
1.68803e-05
1.59251e-05
1.50215e-05
1.41667e-05
1.33583e-05
1.25939e-05
1.18712e-05
1.11881e-05
1.05425e-05
9.93253e-06
9.35623e-06
8.81188e-06
8.2978e-06
7.81238e-06
7.35411e-06
6.92155e-06
6.51333e-06
6.12815e-06
5.76476e-06
5.42201e-06
5.09877e-06
4.79399e-06
4.50666e-06
4.23583e-06
3.98061e-06
3.74013e-06
3.51358e-06
3.30019e-06
3.09924e-06
2.91002e-06
2.7319e-06
2.56425e-06
2.40647e-06
2.25802e-06
2.11837e-06
1.98701e-06
1.86349e-06
1.74735e-06
1.63816e-06
1.53554e-06
1.43911e-06
1.3485e-06
1.26338e-06
1.18343e-06
1.10835e-06
1.03786e-06
9.71692e-07
9.09584e-07
8.51302e-07
7.96618e-07
7.4532e-07
6.97207e-07
6.52089e-07
6.09788e-07
5.70133e-07
5.32966e-07
4.98138e-07
4.65506e-07
4.34938e-07
4.06309e-07
3.79499e-07
3.54398e-07
3.30901e-07
3.08909e-07
2.8833e-07
2.69076e-07
2.51065e-07
2.3422e-07
2.18468e-07
2.0374e-07
1.89974e-07
1.77107e-07
1.65084e-07
1.5385e-07
1.43357e-07
1.33557e-07
1.24406e-07
1.15862e-07
1.07887e-07
1.00443e-07
9.34979e-08
8.70179e-08
8.09734e-08
7.53361e-08
7.00795e-08
6.51789e-08
6.06108e-08
5.63535e-08
5.23867e-08
4.86911e-08
4.52488e-08
4.2043e-08
3.90582e-08
3.62795e-08
3.36932e-08
3.12865e-08
2.90474e-08
2.69645e-08
2.50274e-08
2.32262e-08
2.15518e-08
1.99957e-08
1.85497e-08
1.72064e-08
1.59588e-08
1.48004e-08
1.37252e-08
1.27274e-08
1.18018e-08
1.09434e-08
1.01477e-08
9.41037e-09
8.72745e-09
8.09525e-09
7.51031e-09
6.96944e-09
6.46967e-09
6.00824e-09
5.58261e-09
5.19041e-09
4.82944e-09
4.49769e-09
4.1933e-09
3.91454e-09
3.65983e-09
3.42775e-09
3.21695e-09
3.02623e-09
2.85451e-09
2.7008e-09
2.5642e-09
2.44394e-09
2.33931e-09
2.24972e-09
2.17464e-09
2.11363e-09
2.06634e-09
2.03249e-09
2.01189e-09
2.00441e-09
)
;

boundaryField
{
    sides
    {
        type            zeroGradient;
    }
    empty
    {
        type            empty;
    }
}


// ************************************************************************* //
