/*--------------------------------*- C++ -*----------------------------------*\
| =========                 |                                                 |
| \\      /  F ield         | OpenFOAM: The Open Source CFD Toolbox           |
|  \\    /   O peration     | Version:  2312                                  |
|   \\  /    A nd           | Website:  www.openfoam.com                      |
|    \\/     M anipulation  |                                                 |
\*---------------------------------------------------------------------------*/
FoamFile
{
    version     2.0;
    format      ascii;
    arch        "LSB;label=32;scalar=64";
    class       volScalarField;
    location    "2.5";
    object      T;
}
// * * * * * * * * * * * * * * * * * * * * * * * * * * * * * * * * * * * * * //

dimensions      [0 0 0 1 0 0 0];

internalField   nonuniform List<scalar> 
1000
(
2.23539e-10
2.24579e-10
2.27445e-10
2.32159e-10
2.38755e-10
2.47283e-10
2.57804e-10
2.70396e-10
2.85151e-10
3.02177e-10
3.21597e-10
3.43555e-10
3.68208e-10
3.95736e-10
4.26337e-10
4.60232e-10
4.97663e-10
5.38899e-10
5.84233e-10
6.33987e-10
6.88513e-10
7.48196e-10
8.13454e-10
8.84743e-10
9.6256e-10
1.04744e-09
1.13998e-09
1.24081e-09
1.35061e-09
1.47014e-09
1.60021e-09
1.74169e-09
1.89554e-09
2.06278e-09
2.24453e-09
2.44198e-09
2.65645e-09
2.88934e-09
3.14217e-09
3.41659e-09
3.71436e-09
4.0374e-09
4.38778e-09
4.76774e-09
5.17968e-09
5.6262e-09
6.1101e-09
6.63441e-09
7.20239e-09
7.81754e-09
8.48365e-09
9.2048e-09
9.98539e-09
1.08301e-08
1.17441e-08
1.27328e-08
1.38022e-08
1.49585e-08
1.62087e-08
1.756e-08
1.90203e-08
2.05982e-08
2.23027e-08
2.41437e-08
2.61317e-08
2.8278e-08
3.05948e-08
3.30951e-08
3.57929e-08
3.87033e-08
4.18424e-08
4.52274e-08
4.8877e-08
5.28111e-08
5.70509e-08
6.16195e-08
6.65412e-08
7.18423e-08
7.7551e-08
8.36974e-08
9.03137e-08
9.74345e-08
1.05097e-07
1.1334e-07
1.22207e-07
1.31742e-07
1.41994e-07
1.53015e-07
1.64859e-07
1.77587e-07
1.91261e-07
2.05949e-07
2.21723e-07
2.38659e-07
2.56841e-07
2.76354e-07
2.97294e-07
3.1976e-07
3.43857e-07
3.69701e-07
3.97411e-07
4.27117e-07
4.58957e-07
4.93076e-07
5.2963e-07
5.68787e-07
6.10723e-07
6.55625e-07
7.03696e-07
7.55147e-07
8.10207e-07
8.69115e-07
9.3213e-07
9.99524e-07
1.07159e-06
1.14863e-06
1.23097e-06
1.31897e-06
1.41299e-06
1.51342e-06
1.62069e-06
1.73523e-06
1.85751e-06
1.98803e-06
2.12731e-06
2.27593e-06
2.43446e-06
2.60355e-06
2.78385e-06
2.97607e-06
3.18095e-06
3.3993e-06
3.63195e-06
3.87979e-06
4.14375e-06
4.42483e-06
4.72408e-06
5.04261e-06
5.3816e-06
5.74229e-06
6.126e-06
6.5341e-06
6.96808e-06
7.42946e-06
7.9199e-06
8.44111e-06
8.99492e-06
9.58325e-06
1.02081e-05
1.08717e-05
1.15762e-05
1.2324e-05
1.31177e-05
1.39598e-05
1.48532e-05
1.58007e-05
1.68056e-05
1.78709e-05
1.90002e-05
2.0197e-05
2.14652e-05
2.28087e-05
2.42316e-05
2.57385e-05
2.7334e-05
2.90228e-05
3.08102e-05
3.27015e-05
3.47023e-05
3.68185e-05
3.90565e-05
4.14227e-05
4.39239e-05
4.65674e-05
4.93606e-05
5.23116e-05
5.54285e-05
5.872e-05
6.21953e-05
6.58638e-05
6.97356e-05
7.3821e-05
7.81311e-05
8.26773e-05
8.74715e-05
9.25262e-05
9.78547e-05
0.00010347
0.000109388
0.000115622
0.000122189
0.000129104
0.000136385
0.000144049
0.000152115
0.000160603
0.000169533
0.000178926
0.000188803
0.000199189
0.000210106
0.00022158
0.000233636
0.000246303
0.000259607
0.000273579
0.000288249
0.000303648
0.000319811
0.00033677
0.000354562
0.000373224
0.000392795
0.000413315
0.000434825
0.00045737
0.000480993
0.000505741
0.000531664
0.00055881
0.000587233
0.000616987
0.000648127
0.000680711
0.0007148
0.000750456
0.000787744
0.00082673
0.000867484
0.000910077
0.000954583
0.00100108
0.00104964
0.00110036
0.00115331
0.00120859
0.00126628
0.00132647
0.00138927
0.00145477
0.00152308
0.00159429
0.00166853
0.0017459
0.00182651
0.0019105
0.00199797
0.00208907
0.00218391
0.00228263
0.00238538
0.00249228
0.0026035
0.00271917
0.00283946
0.00296452
0.00309452
0.00322962
0.00337
0.00351582
0.00366728
0.00382456
0.00398785
0.00415734
0.00433323
0.00451573
0.00470505
0.00490141
0.00510502
0.0053161
0.0055349
0.00576164
0.00599657
0.00623992
0.00649196
0.00675294
0.00702312
0.00730276
0.00759215
0.00789156
0.00820127
0.00852157
0.00885275
0.00919512
0.00954899
0.00991465
0.0102924
0.0106827
0.0110857
0.0115017
0.0119313
0.0123746
0.012832
0.0133039
0.0137907
0.0142926
0.0148102
0.0153436
0.0158934
0.0164599
0.0170435
0.0176445
0.0182635
0.0189007
0.0195565
0.0202315
0.020926
0.0216404
0.0223751
0.0231305
0.0239071
0.0247053
0.0255256
0.0263683
0.0272339
0.0281228
0.0290355
0.0299724
0.030934
0.0319206
0.0329328
0.0339709
0.0350354
0.0361268
0.0372455
0.0383918
0.0395664
0.0407695
0.0420017
0.0432634
0.0445549
0.0458768
0.0472294
0.0486132
0.0500285
0.0514758
0.0529555
0.054468
0.0560136
0.0575929
0.059206
0.0608535
0.0625356
0.0642528
0.0660053
0.0677935
0.0696178
0.0714784
0.0733757
0.07531
0.0772815
0.0792905
0.0813372
0.083422
0.085545
0.0877065
0.0899066
0.0921456
0.0944236
0.0967408
0.0990973
0.101493
0.103929
0.106404
0.108919
0.111473
0.114068
0.116702
0.119376
0.122089
0.124843
0.127636
0.130468
0.13334
0.136251
0.139202
0.142191
0.145219
0.148285
0.151389
0.154532
0.157712
0.160929
0.164183
0.167474
0.170801
0.174163
0.17756
0.180993
0.184459
0.187959
0.191492
0.195057
0.198654
0.202282
0.205941
0.20963
0.213347
0.217092
0.220865
0.224665
0.22849
0.23234
0.236214
0.240111
0.244029
0.247969
0.251929
0.255908
0.259905
0.263918
0.267948
0.271992
0.276049
0.280118
0.284198
0.288288
0.292387
0.296493
0.300604
0.304721
0.30884
0.312961
0.317083
0.321204
0.325323
0.329437
0.333547
0.33765
0.341745
0.34583
0.349904
0.353966
0.358013
0.362045
0.366059
0.370055
0.37403
0.377983
0.381913
0.385818
0.389696
0.393546
0.397366
0.401155
0.404911
0.408633
0.412319
0.415966
0.419575
0.423143
0.426669
0.430151
0.433587
0.436977
0.440318
0.443609
0.44685
0.450037
0.45317
0.456247
0.459268
0.46223
0.465132
0.467973
0.470751
0.473466
0.476116
0.478699
0.481215
0.483662
0.486039
0.488345
0.490579
0.49274
0.494827
0.496838
0.498773
0.500631
0.502411
0.504112
0.505733
0.507273
0.508733
0.51011
0.511404
0.512615
0.513742
0.514785
0.515743
0.516615
0.517401
0.5181
0.518713
0.519239
0.519678
0.520029
0.520293
0.520469
0.520557
0.520557
0.520469
0.520293
0.520029
0.519678
0.519239
0.518713
0.5181
0.517401
0.516615
0.515743
0.514785
0.513742
0.512615
0.511404
0.51011
0.508733
0.507273
0.505733
0.504112
0.502411
0.500631
0.498773
0.496838
0.494827
0.49274
0.490579
0.488345
0.486039
0.483662
0.481215
0.478699
0.476116
0.473466
0.470751
0.467973
0.465132
0.46223
0.459268
0.456247
0.45317
0.450037
0.44685
0.443609
0.440318
0.436977
0.433587
0.430151
0.426669
0.423143
0.419575
0.415966
0.412319
0.408633
0.404911
0.401155
0.397366
0.393546
0.389696
0.385818
0.381913
0.377983
0.37403
0.370055
0.366059
0.362045
0.358013
0.353966
0.349904
0.34583
0.341745
0.33765
0.333547
0.329437
0.325323
0.321204
0.317083
0.312961
0.30884
0.304721
0.300604
0.296493
0.292387
0.288288
0.284198
0.280118
0.276049
0.271992
0.267948
0.263918
0.259905
0.255908
0.251929
0.247969
0.244029
0.240111
0.236214
0.23234
0.22849
0.224665
0.220865
0.217092
0.213347
0.20963
0.205941
0.202282
0.198654
0.195057
0.191492
0.187959
0.184459
0.180993
0.17756
0.174163
0.170801
0.167474
0.164183
0.160929
0.157712
0.154532
0.151389
0.148285
0.145219
0.142191
0.139202
0.136251
0.13334
0.130468
0.127636
0.124843
0.122089
0.119376
0.116702
0.114068
0.111473
0.108919
0.106404
0.103929
0.101493
0.0990973
0.0967408
0.0944236
0.0921456
0.0899066
0.0877065
0.085545
0.083422
0.0813372
0.0792905
0.0772815
0.07531
0.0733757
0.0714784
0.0696178
0.0677935
0.0660053
0.0642528
0.0625356
0.0608535
0.059206
0.0575929
0.0560136
0.054468
0.0529555
0.0514758
0.0500285
0.0486132
0.0472294
0.0458768
0.0445549
0.0432634
0.0420017
0.0407695
0.0395664
0.0383918
0.0372455
0.0361268
0.0350354
0.0339709
0.0329328
0.0319206
0.030934
0.0299724
0.0290355
0.0281228
0.0272339
0.0263683
0.0255256
0.0247053
0.0239071
0.0231305
0.0223751
0.0216404
0.020926
0.0202315
0.0195565
0.0189007
0.0182635
0.0176445
0.0170435
0.0164599
0.0158934
0.0153436
0.0148102
0.0142926
0.0137907
0.0133039
0.012832
0.0123746
0.0119313
0.0115017
0.0110857
0.0106827
0.0102924
0.00991465
0.00954899
0.00919512
0.00885275
0.00852157
0.00820127
0.00789156
0.00759215
0.00730276
0.00702312
0.00675294
0.00649196
0.00623992
0.00599657
0.00576164
0.0055349
0.0053161
0.00510502
0.00490141
0.00470505
0.00451573
0.00433323
0.00415734
0.00398785
0.00382456
0.00366728
0.00351582
0.00337
0.00322962
0.00309452
0.00296452
0.00283946
0.00271917
0.0026035
0.00249228
0.00238538
0.00228263
0.00218391
0.00208907
0.00199797
0.0019105
0.00182651
0.0017459
0.00166853
0.00159429
0.00152308
0.00145477
0.00138927
0.00132647
0.00126628
0.00120859
0.00115331
0.00110036
0.00104964
0.00100108
0.000954583
0.000910077
0.000867484
0.00082673
0.000787744
0.000750456
0.0007148
0.000680711
0.000648127
0.000616987
0.000587233
0.00055881
0.000531664
0.000505741
0.000480993
0.00045737
0.000434825
0.000413315
0.000392795
0.000373224
0.000354562
0.00033677
0.000319811
0.000303648
0.000288249
0.000273579
0.000259607
0.000246303
0.000233636
0.00022158
0.000210106
0.000199189
0.000188803
0.000178926
0.000169533
0.000160603
0.000152115
0.000144049
0.000136385
0.000129104
0.000122189
0.000115622
0.000109388
0.00010347
9.78547e-05
9.25262e-05
8.74715e-05
8.26773e-05
7.81311e-05
7.3821e-05
6.97356e-05
6.58638e-05
6.21953e-05
5.872e-05
5.54285e-05
5.23116e-05
4.93606e-05
4.65674e-05
4.39239e-05
4.14227e-05
3.90565e-05
3.68185e-05
3.47023e-05
3.27015e-05
3.08102e-05
2.90228e-05
2.7334e-05
2.57385e-05
2.42316e-05
2.28087e-05
2.14652e-05
2.0197e-05
1.90002e-05
1.78709e-05
1.68056e-05
1.58007e-05
1.48532e-05
1.39598e-05
1.31177e-05
1.2324e-05
1.15762e-05
1.08717e-05
1.02081e-05
9.58325e-06
8.99492e-06
8.44111e-06
7.9199e-06
7.42946e-06
6.96808e-06
6.5341e-06
6.126e-06
5.74229e-06
5.3816e-06
5.04261e-06
4.72408e-06
4.42483e-06
4.14375e-06
3.87979e-06
3.63195e-06
3.3993e-06
3.18095e-06
2.97607e-06
2.78385e-06
2.60355e-06
2.43446e-06
2.27593e-06
2.12731e-06
1.98803e-06
1.85751e-06
1.73523e-06
1.62069e-06
1.51342e-06
1.41299e-06
1.31897e-06
1.23097e-06
1.14863e-06
1.07159e-06
9.99524e-07
9.3213e-07
8.69115e-07
8.10207e-07
7.55147e-07
7.03696e-07
6.55625e-07
6.10723e-07
5.68787e-07
5.2963e-07
4.93076e-07
4.58957e-07
4.27117e-07
3.97411e-07
3.69701e-07
3.43857e-07
3.1976e-07
2.97294e-07
2.76354e-07
2.56841e-07
2.38659e-07
2.21723e-07
2.05949e-07
1.91261e-07
1.77587e-07
1.64859e-07
1.53015e-07
1.41994e-07
1.31742e-07
1.22207e-07
1.1334e-07
1.05097e-07
9.74345e-08
9.03137e-08
8.36974e-08
7.7551e-08
7.18423e-08
6.65412e-08
6.16195e-08
5.70509e-08
5.28111e-08
4.8877e-08
4.52274e-08
4.18424e-08
3.87033e-08
3.57929e-08
3.30951e-08
3.05948e-08
2.8278e-08
2.61317e-08
2.41437e-08
2.23027e-08
2.05982e-08
1.90203e-08
1.756e-08
1.62087e-08
1.49585e-08
1.38022e-08
1.27328e-08
1.17441e-08
1.08301e-08
9.98539e-09
9.2048e-09
8.48365e-09
7.81754e-09
7.20239e-09
6.63441e-09
6.1101e-09
5.6262e-09
5.17968e-09
4.76774e-09
4.38778e-09
4.0374e-09
3.71436e-09
3.41659e-09
3.14217e-09
2.88934e-09
2.65645e-09
2.44198e-09
2.24453e-09
2.06278e-09
1.89554e-09
1.74169e-09
1.60021e-09
1.47014e-09
1.35061e-09
1.24081e-09
1.13998e-09
1.04744e-09
9.6256e-10
8.84743e-10
8.13454e-10
7.48196e-10
6.88513e-10
6.33987e-10
5.84233e-10
5.38899e-10
4.97663e-10
4.60232e-10
4.26337e-10
3.95736e-10
3.68208e-10
3.43555e-10
3.21597e-10
3.02177e-10
2.85151e-10
2.70396e-10
2.57804e-10
2.47283e-10
2.38755e-10
2.32159e-10
2.27445e-10
2.24579e-10
2.23539e-10
)
;

boundaryField
{
    sides
    {
        type            zeroGradient;
    }
    empty
    {
        type            empty;
    }
}


// ************************************************************************* //
