/*--------------------------------*- C++ -*----------------------------------*\
| =========                 |                                                 |
| \\      /  F ield         | OpenFOAM: The Open Source CFD Toolbox           |
|  \\    /   O peration     | Version:  2312                                  |
|   \\  /    A nd           | Website:  www.openfoam.com                      |
|    \\/     M anipulation  |                                                 |
\*---------------------------------------------------------------------------*/
FoamFile
{
    version     2.0;
    format      ascii;
    arch        "LSB;label=32;scalar=64";
    class       volScalarField;
    location    "0.3";
    object      T;
}
// * * * * * * * * * * * * * * * * * * * * * * * * * * * * * * * * * * * * * //

dimensions      [0 0 0 1 0 0 0];

internalField   nonuniform List<scalar> 
1000
(
0
0
0
0
0
0
0
0
0
0
0
0
0
0
0
0
0
0
0
0
0
0
0
0
0
0
0
0
0
0
0
0
0
0
0
0
0
0
0
0
0
0
0
0
0
0
0
0
0
0
0
0
0
0
0
0
0
0
0
0
0
0
0
0
0
0
0
0
0
0
0
0
0
0
0
0
0
0
0
0
0
0
0
0
0
0
0
0
0
0
0
0
0
0
0
0
0
0
0
0
0
0
0
0
0
0
0
0
0
0
0
0
0
0
0
0
0
0
0
0
0
0
0
0
0
0
0
0
0
0
0
0
0
0
0
0
0
0
0
0
0
0
0
0
0
0
0
0
0
0
0
0
0
0
0
0
0
0
0
0
0
0
0
0
0
0
0
0
0
0
0
0
0
-4.94066e-324
2.96439e-323
-4.94066e-324
2.96439e-323
-4.94066e-324
2.96439e-323
-4.94066e-324
2.96439e-323
-4.94066e-324
6.91692e-323
-7.11455e-322
9.42183e-321
-1.20868e-319
1.55524e-318
-2.00082e-317
2.57406e-316
-3.31154e-315
4.26031e-314
-5.48091e-313
7.05122e-312
-9.07142e-311
1.16704e-309
-1.5014e-308
1.93156e-307
-2.48497e-306
3.19692e-305
-4.11285e-304
5.2912e-303
-6.80715e-302
8.75743e-301
-1.12665e-299
1.44944e-298
-1.86471e-297
2.39895e-296
-3.08626e-295
3.97049e-294
-5.10805e-293
6.57153e-292
-8.4543e-291
1.08765e-289
-1.39927e-288
1.80016e-287
-2.31591e-286
2.97943e-285
-3.83305e-284
4.93124e-283
-6.34406e-282
8.16166e-281
-1.05e-279
1.35083e-278
-1.73785e-277
2.23575e-276
-2.8763e-275
3.70038e-274
-4.76055e-273
6.12447e-272
-7.87916e-271
1.01366e-269
-1.30407e-268
1.6777e-267
-2.15836e-266
2.77675e-265
-3.57229e-264
4.59577e-263
-5.91248e-262
7.60643e-261
-9.78571e-260
1.25894e-258
-1.61963e-257
2.08366e-256
-2.68063e-255
3.44864e-254
-4.4367e-253
5.70783e-252
-7.34314e-251
9.44699e-250
-1.21536e-248
1.56356e-247
-2.01153e-246
2.58785e-245
-3.32927e-244
4.28312e-243
-5.51026e-242
7.08897e-241
-9.11999e-240
1.17329e-238
-1.50944e-237
1.94191e-236
-2.49827e-235
3.21404e-234
-4.13487e-233
5.31953e-232
-6.8436e-231
8.80432e-230
-1.13268e-228
1.4572e-227
-1.87469e-226
2.4118e-225
-3.10279e-224
3.99175e-223
-5.1354e-222
6.60671e-221
-8.49957e-220
1.09347e-218
-1.40676e-217
1.8098e-216
-2.32831e-215
2.99539e-214
-3.85358e-213
4.95764e-212
-6.37803e-211
8.20536e-210
-1.05562e-208
1.35806e-207
-1.74716e-206
2.24772e-205
-2.89171e-204
3.72019e-203
-4.78604e-202
6.15726e-201
-7.92135e-200
1.01908e-198
-1.31106e-197
1.68668e-196
-2.16992e-195
2.79161e-194
-3.59142e-193
4.62038e-192
-5.94414e-191
7.64716e-190
-9.8381e-189
1.26568e-187
-1.6283e-186
2.09481e-185
-2.69498e-184
3.46711e-183
-4.46045e-182
5.73839e-181
-7.38246e-180
9.49757e-179
-1.22187e-177
1.57194e-176
-2.0223e-175
2.6017e-174
-3.3471e-173
4.30606e-172
-5.53976e-171
7.12693e-170
-9.16882e-169
1.17957e-167
-1.51753e-166
1.9523e-165
-2.51165e-164
3.23124e-163
-4.15701e-162
5.34801e-161
-6.88024e-160
8.85146e-159
-1.13874e-157
1.465e-156
-1.88473e-155
2.42471e-154
-3.1194e-153
4.01312e-152
-5.1629e-151
6.64209e-150
-8.54507e-149
1.09933e-147
-1.41429e-146
1.81949e-145
-2.34078e-144
3.01142e-143
-3.87421e-142
4.98419e-141
-6.41218e-140
8.2493e-139
-1.06128e-137
1.36534e-136
-1.75651e-135
2.25976e-134
-2.90719e-133
3.74011e-132
-4.81167e-131
6.19023e-130
-7.96376e-129
1.02454e-127
-1.31808e-126
1.69571e-125
-2.18154e-124
2.80656e-123
-3.61065e-122
4.64512e-121
-5.97596e-120
7.6881e-119
-9.89078e-118
1.27245e-116
-1.63702e-115
2.10603e-114
-2.70941e-113
3.48567e-112
-4.48433e-111
5.76911e-110
-7.42199e-109
9.54842e-108
-1.22841e-106
1.58035e-105
-2.03313e-104
2.61563e-103
-3.36502e-102
4.32911e-101
-5.56942e-100
7.16509e-99
-9.21791e-98
1.18589e-96
-1.52565e-95
1.96276e-94
-2.52509e-93
3.24854e-92
-4.17927e-91
5.37664e-90
-6.91708e-89
8.89885e-88
-1.14484e-86
1.47284e-85
-1.89482e-84
2.43769e-83
-3.1361e-82
4.03461e-81
-5.19054e-80
6.67765e-79
-8.59083e-78
1.10521e-76
-1.42186e-75
1.82923e-74
-2.35331e-73
3.02755e-72
-3.89495e-71
5.01087e-70
-6.44651e-69
8.29346e-68
-1.06696e-66
1.37265e-65
-1.76591e-64
2.27186e-63
-2.92275e-62
3.76013e-61
-4.83743e-60
6.22337e-59
-8.0064e-58
1.03003e-56
-1.32513e-55
1.70479e-54
-2.19322e-53
2.82159e-52
-3.62998e-51
4.66999e-50
-6.00796e-49
7.72927e-48
-9.94373e-47
1.27927e-45
-1.64578e-44
2.1173e-43
-2.72392e-42
3.50434e-41
-4.50834e-40
5.8e-39
-7.46173e-38
9.59954e-37
-1.23499e-35
1.58881e-34
-2.04402e-33
2.62964e-32
-3.38304e-31
4.35229e-30
-5.59924e-29
7.20345e-28
-6.80456e-26
7.09792e-17
4.88564e-15
1.64147e-13
3.58618e-12
5.72627e-11
7.12112e-10
7.17662e-09
6.02158e-08
4.2886e-07
2.63006e-06
1.40404e-05
6.57933e-05
0.000272365
0.00100092
0.00327704
0.00958233
0.0250623
0.0586673
0.122889
0.230136
0.38478
0.573557
0.761859
0.905103
0.977868
0.997729
0.999927
0.999999
1
1
1
1
1
1
1
1
1
1
1
1
1
1
1
1
1
1
1
1
1
1
1
1
1
1
1
1
1
1
1
1
1
1
1
1
1
1
1
1
1
1
1
1
1
1
1
1
1
1
1
1
1
1
1
1
1
1
1
1
1
1
1
1
1
1
1
1
1
1
1
1
1
1
1
1
1
1
1
1
1
0.999997
0.999986
0.999934
0.999726
0.998994
0.996709
0.990384
0.974866
0.9412
0.876899
0.769575
0.614892
0.426145
0.237937
0.0948031
0.0221077
0.00226847
7.31424e-05
5.34313e-07
6.71416e-10
1.17462e-13
9.42778e-18
7.60627e-22
6.18991e-26
5.0815e-30
4.19931e-34
3.48323e-38
2.89247e-42
2.40016e-46
1.98826e-50
1.64379e-54
1.35657e-58
1.11801e-62
9.20584e-67
7.57678e-71
6.23509e-75
5.13117e-79
4.22312e-83
3.47606e-87
2.86121e-91
2.35497e-95
1.93804e-99
1.59461e-103
1.31173e-107
1.07876e-111
8.86947e-116
7.29062e-120
5.99143e-124
4.92266e-128
4.04369e-132
3.32097e-136
2.72687e-140
2.23859e-144
1.83736e-148
1.50772e-152
1.23696e-156
1.01459e-160
8.32022e-165
6.82149e-169
5.59146e-173
4.58218e-177
3.75421e-181
3.07515e-185
2.51833e-189
2.06185e-193
1.68771e-197
1.38114e-201
1.12999e-205
9.2428e-210
7.55838e-214
6.17941e-218
5.05078e-222
4.12726e-226
3.37176e-230
2.75386e-234
2.24862e-238
1.8356e-242
1.49806e-246
1.22227e-250
9.96988e-255
8.13015e-259
6.62814e-263
5.40218e-267
4.40178e-271
3.58566e-275
2.92006e-279
2.37736e-283
1.93498e-287
1.57448e-291
1.28078e-295
1.04157e-299
8.46801e-304
6.88251e-308
5.59225e-312
4.54255e-316
3.68919e-320
0
0
0
0
0
0
0
0
0
0
0
0
0
0
0
0
0
0
0
0
0
0
0
0
0
0
0
0
0
0
0
0
0
0
0
0
0
0
0
0
0
0
0
0
0
0
0
0
0
0
0
0
0
0
0
0
0
0
0
0
0
0
0
0
0
0
0
0
0
0
0
0
0
0
0
0
0
0
0
0
0
0
0
0
0
0
0
0
0
0
0
0
0
0
0
0
0
0
0
0
0
0
0
0
0
0
0
0
0
0
0
0
0
0
0
0
0
0
0
0
0
0
0
0
0
0
0
0
0
0
0
0
0
0
0
0
0
0
0
0
0
0
0
0
0
0
0
0
0
0
0
0
0
0
0
0
0
0
0
0
0
0
0
0
0
0
0
0
0
0
0
0
0
0
0
0
0
0
0
0
0
0
0
0
0
0
0
0
0
0
0
0
0
0
0
0
0
0
0
0
0
0
0
0
0
0
0
0
0
0
0
0
0
0
0
0
0
0
0
0
0
0
0
0
0
0
0
0
0
0
0
0
0
0
0
0
0
0
0
0
0
0
0
0
0
0
0
0
0
0
0
0
0
0
0
0
0
0
0
0
0
0
0
0
0
0
0
0
0
0
0
0
0
0
0
0
0
0
0
0
0
0
0
0
0
0
0
0
0
0
0
0
0
0
0
0
0
0
0
0
0
0
0
0
0
0
0
0
0
0
0
0
0
0
0
0
0
0
0
0
0
0
0
0
0
0
0
0
0
0
0
0
0
0
0
0
0
0
0
0
0
0
0
0
0
)
;

boundaryField
{
    sides
    {
        type            zeroGradient;
    }
    empty
    {
        type            empty;
    }
}


// ************************************************************************* //
