/*--------------------------------*- C++ -*----------------------------------*\
| =========                 |                                                 |
| \\      /  F ield         | OpenFOAM: The Open Source CFD Toolbox           |
|  \\    /   O peration     | Version:  2312                                  |
|   \\  /    A nd           | Website:  www.openfoam.com                      |
|    \\/     M anipulation  |                                                 |
\*---------------------------------------------------------------------------*/
FoamFile
{
    version     2.0;
    format      ascii;
    arch        "LSB;label=32;scalar=64";
    class       volScalarField;
    location    "1.1";
    object      T;
}
// * * * * * * * * * * * * * * * * * * * * * * * * * * * * * * * * * * * * * //

dimensions      [0 0 0 1 0 0 0];

internalField   nonuniform List<scalar> 
1000
(
1.67366e-203
6.9802e-203
3.50054e-202
1.76704e-201
8.90929e-201
4.4853e-200
2.25469e-199
1.13168e-198
5.67158e-198
2.83807e-197
1.41802e-196
7.07419e-196
3.52376e-195
1.75254e-194
8.70286e-194
4.31504e-193
2.13617e-192
1.05587e-191
5.21088e-191
2.56763e-190
1.26321e-189
6.20489e-189
3.04306e-188
1.49005e-187
7.28458e-187
3.55565e-186
1.73277e-185
8.43085e-185
4.09549e-184
1.98629e-183
9.61794e-183
4.64965e-182
2.24416e-181
1.0814e-180
5.20245e-180
2.49875e-179
1.19819e-178
5.73611e-178
2.74154e-177
1.30814e-176
6.23152e-176
2.96356e-175
1.40705e-174
6.66933e-174
3.15593e-173
1.49088e-172
7.03117e-172
3.31039e-171
1.55595e-170
7.30085e-170
3.41989e-169
1.59922e-168
7.46556e-168
3.47912e-167
1.61856e-166
7.51687e-166
3.48492e-165
1.61285e-164
7.45141e-164
3.43656e-163
1.58215e-162
7.27123e-162
3.33582e-161
1.52767e-160
6.98368e-160
3.18689e-159
1.4517e-158
6.60096e-158
2.99611e-157
1.35746e-156
6.13923e-156
2.77149e-155
1.24889e-154
5.61749e-154
2.52213e-153
1.13031e-152
5.05625e-152
2.25766e-151
1.0062e-150
4.47618e-150
1.98756e-149
8.80895e-149
3.89686e-148
1.72064e-147
7.58309e-147
3.33567e-146
1.46452e-145
6.41777e-145
2.80701e-144
1.22539e-143
5.33913e-143
2.32183e-142
1.00775e-141
4.36552e-141
1.88744e-140
8.14454e-140
3.5076e-139
1.50766e-138
6.46756e-138
2.76899e-137
1.18316e-136
5.04551e-136
2.14734e-135
9.1207e-135
3.86621e-134
1.63558e-133
6.90525e-133
2.90944e-132
1.22337e-131
5.13362e-131
2.14982e-130
8.98443e-130
3.74702e-129
1.5595e-128
6.47721e-128
2.68465e-127
1.11041e-126
4.58325e-126
1.88778e-125
7.75923e-125
3.1825e-124
1.30257e-123
5.31997e-123
2.16817e-122
8.81758e-122
3.57828e-121
1.44899e-120
5.8549e-120
2.36066e-119
9.49737e-119
3.81265e-118
1.52722e-117
6.10411e-117
2.43438e-116
9.68711e-116
3.84625e-115
1.52376e-114
6.02318e-114
2.37554e-113
9.34814e-113
3.67036e-112
1.43784e-111
5.61987e-111
2.19156e-110
8.52687e-110
3.31002e-109
1.28195e-108
4.95349e-108
1.90961e-107
7.34464e-107
2.81827e-106
1.0789e-105
4.12056e-105
1.57004e-104
5.96812e-104
2.26326e-103
8.56247e-103
3.23166e-102
1.21678e-101
4.57038e-101
1.71256e-100
6.40156e-100
2.3871e-99
8.87969e-99
3.29504e-98
1.21971e-97
4.50384e-97
1.65896e-96
6.09549e-96
2.23409e-95
8.16781e-95
2.97866e-94
1.08354e-93
3.93159e-93
1.42296e-92
5.137e-92
1.84977e-91
6.64374e-91
2.38007e-90
8.50445e-90
3.03093e-89
1.0774e-88
3.81983e-88
1.35074e-87
4.76386e-87
1.67571e-86
5.87881e-86
2.05695e-85
7.17794e-85
2.49812e-84
8.67077e-84
3.00145e-83
1.03616e-82
3.56733e-82
1.22483e-81
4.19388e-81
1.43207e-80
4.87654e-80
1.65599e-79
5.60785e-79
1.89375e-78
6.37723e-78
2.14151e-77
7.17106e-77
2.3945e-76
7.97283e-76
2.64709e-75
8.76358e-75
2.89297e-74
9.52254e-74
3.12538e-73
1.02279e-72
3.33738e-72
1.0858e-71
3.52219e-71
1.13918e-70
3.67355e-70
1.1811e-69
3.78604e-69
1.20999e-68
3.85541e-68
1.22474e-67
3.87882e-67
1.2247e-66
3.85506e-66
1.20976e-65
3.78464e-65
1.18033e-64
3.66974e-64
1.13739e-63
3.51418e-63
1.08235e-62
3.3231e-62
1.01704e-61
3.10279e-61
9.43576e-61
2.86027e-60
8.64243e-60
2.60291e-59
7.81397e-59
2.33812e-58
6.97332e-58
2.07292e-57
6.14175e-57
1.81368e-56
5.33806e-56
1.56586e-55
4.5779e-55
1.33388e-54
3.87341e-54
1.12097e-53
3.23308e-53
9.29283e-53
2.66186e-52
7.59839e-52
2.16148e-51
6.12729e-51
1.73087e-50
4.87234e-50
1.36671e-49
3.82013e-49
1.06398e-48
2.95283e-48
8.16554e-48
2.24992e-47
6.17701e-47
1.68971e-46
4.60534e-46
1.2506e-45
3.38361e-45
9.12088e-45
2.44952e-44
6.55403e-44
1.74707e-43
4.6396e-43
1.22747e-42
3.23517e-42
8.49434e-42
2.22179e-41
5.78906e-41
1.50259e-40
3.88499e-40
1.00058e-39
2.56695e-39
6.55965e-39
1.66968e-38
4.2332e-38
1.069e-37
2.68879e-37
6.73588e-37
1.68068e-36
4.17656e-36
1.03369e-35
2.54797e-35
6.25487e-35
1.52917e-34
3.72308e-34
9.02706e-34
2.17963e-33
5.24083e-33
1.25486e-32
2.99196e-32
7.10358e-32
1.67938e-31
3.95335e-31
9.26653e-31
2.1627e-30
5.02567e-30
1.1628e-29
2.67865e-29
6.14359e-29
1.40286e-28
3.18923e-28
7.21817e-28
1.62641e-27
3.64825e-27
8.14674e-27
1.811e-26
4.00759e-26
8.82806e-26
1.93579e-25
4.22525e-25
9.17996e-25
1.98524e-24
4.27329e-24
9.15542e-24
1.95233e-23
4.1436e-23
8.75272e-23
1.8401e-22
3.85001e-22
8.01674e-22
1.66127e-21
3.42593e-21
7.0308e-21
1.43585e-20
2.91801e-20
5.90097e-20
1.18744e-19
2.37763e-19
4.73708e-19
9.39081e-19
1.8523e-18
3.63518e-18
7.09806e-18
1.37893e-17
2.66517e-17
5.12483e-17
9.80381e-17
1.8658e-16
3.53246e-16
6.65311e-16
1.24652e-15
2.32321e-15
4.30712e-15
7.94301e-15
1.45704e-14
2.65852e-14
4.82482e-14
8.70933e-14
1.56366e-13
2.79219e-13
4.9589e-13
8.75896e-13
1.53865e-12
2.68804e-12
4.67019e-12
8.06911e-12
1.38644e-11
2.36893e-11
4.02505e-11
6.80063e-11
1.14256e-10
1.90875e-10
3.17069e-10
5.23702e-10
8.60068e-10
1.4044e-09
2.28009e-09
3.6805e-09
5.90674e-09
9.42472e-09
1.49507e-08
2.35785e-08
3.69683e-08
5.76225e-08
8.92889e-08
1.37543e-07
2.10625e-07
3.20629e-07
4.85191e-07
7.29849e-07
1.09133e-06
1.62211e-06
2.3966e-06
3.51963e-06
5.13786e-06
7.45493e-06
1.07517e-05
1.54127e-05
2.19606e-05
3.11006e-05
4.37774e-05
6.12467e-05
8.51657e-05
0.000117705
0.000161684
0.00022074
0.000299527
0.000403952
0.000541455
0.000721326
0.000955078
0.00125685
0.00164387
0.00213694
0.00276095
0.00354544
0.00452512
0.00574039
0.00723785
0.00907067
0.0112989
0.0139897
0.0172171
0.0210622
0.0256122
0.0309599
0.0372026
0.0444406
0.0527757
0.0623088
0.073138
0.0853555
0.0990451
0.11428
0.131117
0.149599
0.169747
0.19156
0.215014
0.24006
0.26662
0.294594
0.323854
0.354248
0.385602
0.417725
0.450407
0.483431
0.516569
0.549593
0.582275
0.614398
0.645752
0.676146
0.705406
0.73338
0.75994
0.784986
0.80844
0.830253
0.850401
0.868883
0.88572
0.900955
0.914645
0.926862
0.937691
0.947224
0.955559
0.962797
0.96904
0.974388
0.978938
0.982783
0.98601
0.988701
0.990929
0.992762
0.99426
0.995475
0.996455
0.997239
0.997863
0.998356
0.998743
0.999045
0.999278
0.999458
0.999596
0.9997
0.999778
0.999837
0.99988
0.999911
0.999934
0.999949
0.999958
0.999963
0.999963
0.999958
0.999949
0.999934
0.999911
0.99988
0.999837
0.999778
0.9997
0.999596
0.999458
0.999278
0.999045
0.998743
0.998356
0.997863
0.997239
0.996455
0.995475
0.99426
0.992762
0.990929
0.988701
0.98601
0.982783
0.978938
0.974388
0.96904
0.962797
0.955559
0.947224
0.937691
0.926862
0.914645
0.900955
0.88572
0.868883
0.850401
0.830253
0.80844
0.784986
0.75994
0.73338
0.705406
0.676146
0.645752
0.614398
0.582275
0.549593
0.516569
0.483431
0.450407
0.417725
0.385602
0.354248
0.323854
0.294594
0.26662
0.24006
0.215014
0.19156
0.169747
0.149599
0.131117
0.11428
0.0990451
0.0853555
0.073138
0.0623088
0.0527757
0.0444406
0.0372026
0.0309599
0.0256122
0.0210622
0.0172171
0.0139897
0.0112989
0.00907067
0.00723785
0.00574039
0.00452512
0.00354544
0.00276095
0.00213694
0.00164387
0.00125685
0.000955078
0.000721326
0.000541455
0.000403952
0.000299527
0.00022074
0.000161684
0.000117705
8.51657e-05
6.12467e-05
4.37774e-05
3.11006e-05
2.19606e-05
1.54127e-05
1.07517e-05
7.45493e-06
5.13786e-06
3.51963e-06
2.3966e-06
1.62211e-06
1.09133e-06
7.29849e-07
4.85191e-07
3.20629e-07
2.10625e-07
1.37543e-07
8.92889e-08
5.76225e-08
3.69683e-08
2.35785e-08
1.49507e-08
9.42472e-09
5.90674e-09
3.6805e-09
2.28009e-09
1.4044e-09
8.60068e-10
5.23702e-10
3.17069e-10
1.90875e-10
1.14256e-10
6.80063e-11
4.02505e-11
2.36893e-11
1.38644e-11
8.06911e-12
4.67019e-12
2.68804e-12
1.53865e-12
8.75896e-13
4.9589e-13
2.79219e-13
1.56366e-13
8.70933e-14
4.82482e-14
2.65852e-14
1.45704e-14
7.94301e-15
4.30712e-15
2.32321e-15
1.24652e-15
6.65311e-16
3.53246e-16
1.8658e-16
9.80381e-17
5.12483e-17
2.66517e-17
1.37893e-17
7.09806e-18
3.63518e-18
1.8523e-18
9.39081e-19
4.73708e-19
2.37763e-19
1.18744e-19
5.90097e-20
2.91801e-20
1.43585e-20
7.0308e-21
3.42593e-21
1.66127e-21
8.01674e-22
3.85001e-22
1.8401e-22
8.75272e-23
4.1436e-23
1.95233e-23
9.15542e-24
4.27329e-24
1.98524e-24
9.17996e-25
4.22525e-25
1.93579e-25
8.82806e-26
4.00759e-26
1.811e-26
8.14674e-27
3.64825e-27
1.62641e-27
7.21817e-28
3.18923e-28
1.40286e-28
6.14359e-29
2.67865e-29
1.1628e-29
5.02567e-30
2.1627e-30
9.26653e-31
3.95335e-31
1.67938e-31
7.10358e-32
2.99196e-32
1.25486e-32
5.24083e-33
2.17963e-33
9.02706e-34
3.72308e-34
1.52917e-34
6.25487e-35
2.54797e-35
1.03369e-35
4.17656e-36
1.68068e-36
6.73588e-37
2.68879e-37
1.069e-37
4.2332e-38
1.66968e-38
6.55965e-39
2.56695e-39
1.00058e-39
3.88499e-40
1.50259e-40
5.78906e-41
2.22179e-41
8.49434e-42
3.23517e-42
1.22747e-42
4.6396e-43
1.74707e-43
6.55403e-44
2.44952e-44
9.12088e-45
3.38361e-45
1.2506e-45
4.60534e-46
1.68971e-46
6.17701e-47
2.24992e-47
8.16554e-48
2.95283e-48
1.06398e-48
3.82013e-49
1.36671e-49
4.87234e-50
1.73087e-50
6.12729e-51
2.16148e-51
7.59839e-52
2.66186e-52
9.29283e-53
3.23308e-53
1.12097e-53
3.87341e-54
1.33388e-54
4.5779e-55
1.56586e-55
5.33806e-56
1.81368e-56
6.14175e-57
2.07292e-57
6.97332e-58
2.33812e-58
7.81397e-59
2.60291e-59
8.64243e-60
2.86027e-60
9.43576e-61
3.10279e-61
1.01704e-61
3.3231e-62
1.08235e-62
3.51418e-63
1.13739e-63
3.66974e-64
1.18033e-64
3.78464e-65
1.20976e-65
3.85506e-66
1.2247e-66
3.87882e-67
1.22474e-67
3.85541e-68
1.20999e-68
3.78604e-69
1.1811e-69
3.67355e-70
1.13918e-70
3.52219e-71
1.0858e-71
3.33738e-72
1.02279e-72
3.12538e-73
9.52254e-74
2.89297e-74
8.76358e-75
2.64709e-75
7.97283e-76
2.3945e-76
7.17106e-77
2.14151e-77
6.37723e-78
1.89375e-78
5.60785e-79
1.65599e-79
4.87654e-80
1.43207e-80
4.19388e-81
1.22483e-81
3.56733e-82
1.03616e-82
3.00145e-83
8.67077e-84
2.49812e-84
7.17794e-85
2.05695e-85
5.87881e-86
1.67571e-86
4.76386e-87
1.35074e-87
3.81983e-88
1.0774e-88
3.03093e-89
8.50445e-90
2.38007e-90
6.64374e-91
1.84977e-91
5.137e-92
1.42296e-92
3.93159e-93
1.08354e-93
2.97866e-94
8.16781e-95
2.23409e-95
6.09549e-96
1.65896e-96
4.50384e-97
1.21971e-97
3.29504e-98
8.87969e-99
2.3871e-99
6.40156e-100
1.71256e-100
4.57038e-101
1.21678e-101
3.23166e-102
8.56247e-103
2.26326e-103
5.96812e-104
1.57004e-104
4.12056e-105
1.0789e-105
2.81827e-106
7.34464e-107
1.90961e-107
4.95349e-108
1.28195e-108
3.31002e-109
8.52687e-110
2.19156e-110
5.61987e-111
1.43784e-111
3.67036e-112
9.34814e-113
2.37554e-113
6.02318e-114
1.52376e-114
3.84625e-115
9.68711e-116
2.43438e-116
6.10411e-117
1.52722e-117
3.81265e-118
9.49737e-119
2.36066e-119
5.8549e-120
1.44899e-120
3.57828e-121
8.81758e-122
2.16817e-122
5.31997e-123
1.30257e-123
3.1825e-124
7.75923e-125
1.88778e-125
4.58325e-126
1.11041e-126
2.68465e-127
6.47721e-128
1.5595e-128
3.74702e-129
8.98443e-130
2.14982e-130
5.13362e-131
1.22337e-131
2.90944e-132
6.90525e-133
1.63558e-133
3.86621e-134
9.1207e-135
2.14734e-135
5.04551e-136
1.18316e-136
2.76899e-137
6.46756e-138
1.50766e-138
3.5076e-139
8.14454e-140
1.88744e-140
4.36552e-141
1.00775e-141
2.32183e-142
5.33913e-143
1.22539e-143
2.80701e-144
6.41777e-145
1.46452e-145
3.33567e-146
7.58309e-147
1.72064e-147
3.89686e-148
8.80895e-149
1.98756e-149
4.47618e-150
1.0062e-150
2.25766e-151
5.05625e-152
1.13031e-152
2.52213e-153
5.61749e-154
1.24889e-154
2.77149e-155
6.13923e-156
1.35746e-156
2.99611e-157
6.60096e-158
1.4517e-158
3.18689e-159
6.98368e-160
1.52767e-160
3.33582e-161
7.27123e-162
1.58215e-162
3.43656e-163
7.45141e-164
1.61285e-164
3.48492e-165
7.51687e-166
1.61856e-166
3.47912e-167
7.46556e-168
1.59922e-168
3.41989e-169
7.30085e-170
1.55595e-170
3.31039e-171
7.03117e-172
1.49088e-172
3.15593e-173
6.66933e-174
1.40705e-174
2.96356e-175
6.23152e-176
1.30814e-176
2.74154e-177
5.73611e-178
1.19819e-178
2.49875e-179
5.20245e-180
1.0814e-180
2.24416e-181
4.64965e-182
9.61794e-183
1.98629e-183
4.09549e-184
8.43085e-185
1.73277e-185
3.55565e-186
7.28458e-187
1.49005e-187
3.04306e-188
6.20489e-189
1.26321e-189
2.56763e-190
5.21088e-191
1.05587e-191
2.13617e-192
4.31504e-193
8.70286e-194
1.75254e-194
3.52376e-195
7.07419e-196
1.41802e-196
2.83807e-197
5.67158e-198
1.13168e-198
2.25469e-199
4.4853e-200
8.90929e-201
1.76704e-201
3.50054e-202
6.9802e-203
1.67366e-203
)
;

boundaryField
{
    sides
    {
        type            zeroGradient;
    }
    empty
    {
        type            empty;
    }
}


// ************************************************************************* //
