/*--------------------------------*- C++ -*----------------------------------*\
| =========                 |                                                 |
| \\      /  F ield         | OpenFOAM: The Open Source CFD Toolbox           |
|  \\    /   O peration     | Version:  2312                                  |
|   \\  /    A nd           | Website:  www.openfoam.com                      |
|    \\/     M anipulation  |                                                 |
\*---------------------------------------------------------------------------*/
FoamFile
{
    version     2.0;
    format      ascii;
    arch        "LSB;label=32;scalar=64";
    class       volScalarField;
    location    "1.3";
    object      T;
}
// * * * * * * * * * * * * * * * * * * * * * * * * * * * * * * * * * * * * * //

dimensions      [0 0 0 1 0 0 0];

internalField   nonuniform List<scalar> 
1000
(
0
0
0
0
0
0
0
0
0
0
0
0
0
0
0
0
0
0
0
0
0
0
0
0
0
0
0
0
0
0
0
0
0
0
0
0
0
0
0
0
0
0
0
0
0
0
0
0
0
0
0
0
0
0
0
0
0
0
0
0
0
0
0
0
0
0
0
0
0
0
0
0
0
0
0
0
0
0
0
0
0
0
0
0
0
0
0
0
0
0
0
0
0
0
0
0
0
0
0
0
0
0
0
0
0
0
0
0
0
0
0
0
0
0
0
0
0
0
0
0
0
0
0
0
0
0
0
0
0
0
0
0
0
0
0
0
0
0
0
0
0
0
0
0
0
0
0
0
0
0
0
0
0
0
0
0
0
0
0
0
0
0
0
0
0
0
0
0
0
0
0
0
0
-4.94066e-324
2.96439e-323
-4.94066e-324
2.96439e-323
-4.94066e-324
2.96439e-323
-4.94066e-324
2.96439e-323
-4.94066e-324
2.96439e-323
-4.94066e-324
2.96439e-323
-4.94066e-324
2.96439e-323
-4.94066e-324
2.96439e-323
-4.94066e-324
2.96439e-323
-4.94066e-324
2.96439e-323
-4.94066e-324
2.96439e-323
-4.94066e-324
2.96439e-323
-4.94066e-324
2.96439e-323
-4.94066e-324
2.96439e-323
-4.94066e-324
2.96439e-323
-4.94066e-324
2.96439e-323
-4.94066e-324
2.96439e-323
-4.94066e-324
2.96439e-323
-4.94066e-324
1.4822e-322
-1.67488e-321
2.18081e-320
-2.80214e-319
3.6052e-318
-4.63809e-317
5.96692e-316
-7.67647e-315
9.87582e-314
-1.27053e-312
1.63454e-311
-2.10284e-310
2.70532e-309
-3.4804e-308
4.47755e-307
-5.76039e-306
7.41076e-305
-9.53398e-304
1.22655e-302
-1.57796e-301
2.03006e-300
-2.61167e-299
3.35993e-298
-4.32256e-297
5.561e-296
-7.15425e-295
9.20397e-294
-1.18409e-292
1.52334e-291
-1.95979e-290
2.52127e-289
-3.24363e-288
4.17295e-287
-5.36851e-286
6.90661e-285
-8.88539e-284
1.14311e-282
-1.47061e-281
1.89195e-280
-2.434e-279
3.13136e-278
-4.0285e-277
5.18269e-276
-6.66755e-275
8.57783e-274
-1.10354e-272
1.41971e-271
-1.82646e-270
2.34975e-269
-3.02297e-268
3.88906e-267
-5.0033e-266
6.43676e-265
-8.28092e-264
1.06534e-262
-1.37057e-261
1.76324e-260
-2.26842e-259
2.91833e-258
-3.75445e-257
4.83011e-256
-6.21396e-255
7.99429e-254
-1.02847e-252
1.32313e-251
-1.70221e-250
2.1899e-249
-2.81732e-248
3.62449e-247
-4.66292e-246
5.99887e-245
-7.71757e-244
9.92869e-243
-1.27733e-241
1.64329e-240
-2.1141e-239
2.7198e-238
-3.49903e-237
4.50152e-236
-5.79123e-235
7.45044e-234
-9.58502e-233
1.23312e-231
-1.58641e-230
2.04092e-229
-2.62566e-228
3.37792e-227
-4.34571e-226
5.59077e-225
-7.19255e-224
9.25325e-223
-1.19043e-221
1.5315e-220
-1.97028e-219
2.53477e-218
-3.261e-217
4.19529e-216
-5.39726e-215
6.94359e-214
-8.93296e-213
1.14923e-211
-1.47849e-210
1.90208e-209
-2.44704e-208
3.14812e-207
-4.05007e-206
5.21044e-205
-6.70325e-204
8.62376e-203
-1.10945e-201
1.42731e-200
-1.83624e-199
2.36234e-198
-3.03915e-197
3.90989e-196
-5.03008e-195
6.47122e-194
-8.32526e-193
1.07105e-191
-1.37791e-190
1.77268e-189
-2.28057e-188
2.93396e-187
-3.77455e-186
4.85597e-185
-6.24723e-184
8.03709e-183
-1.03398e-181
1.33021e-180
-1.71133e-179
2.20163e-178
-2.8324e-177
3.6439e-176
-4.68789e-175
6.03099e-174
-7.7589e-173
9.98185e-172
-1.28417e-170
1.65209e-169
-2.12542e-168
2.73436e-167
-3.51777e-166
4.52563e-165
-5.82224e-164
7.49033e-163
-9.63634e-162
1.23972e-160
-1.5949e-159
2.05185e-158
-2.63972e-157
3.39601e-156
-4.36898e-155
5.62071e-154
-7.23106e-153
9.30279e-152
-1.19681e-150
1.5397e-149
-1.98083e-148
2.54835e-147
-3.27846e-146
4.21775e-145
-5.42615e-144
6.98077e-143
-8.98079e-142
1.15538e-140
-1.4864e-139
1.91227e-138
-2.46014e-137
3.16498e-136
-4.07176e-135
5.23833e-134
-6.73914e-133
8.66993e-132
-1.11539e-130
1.43495e-129
-1.84608e-128
2.37498e-127
-3.05543e-126
3.93082e-125
-5.05702e-124
6.50587e-123
-8.36983e-122
1.07678e-120
-1.38529e-119
1.78218e-118
-2.29278e-117
2.94967e-116
-3.79476e-115
4.88197e-114
-6.28068e-113
8.08012e-112
-1.03951e-110
1.33734e-109
-1.72049e-108
2.21342e-107
-2.84757e-106
3.66341e-105
-4.71299e-104
6.06328e-103
-7.80044e-102
1.00353e-100
-1.29105e-99
1.66094e-98
-2.1368e-97
2.749e-96
-3.5366e-95
4.54986e-94
-5.85341e-93
7.53044e-92
-9.68794e-91
1.24636e-89
-1.60344e-88
2.06284e-87
-2.65385e-86
3.41419e-85
-4.39237e-84
5.6508e-83
-7.26978e-82
9.3526e-81
-1.20322e-79
1.54794e-78
-1.99144e-77
2.56199e-76
-3.29601e-75
4.24033e-74
-5.45521e-73
7.01815e-72
-9.02888e-71
2.23885e-70
3.61753e-69
-5.87535e-68
-6.15847e-68
2.84344e-66
-1.54948e-66
-1.34526e-64
2.73712e-64
6.38858e-63
-1.56351e-62
-3.22214e-61
5.09799e-61
1.69194e-59
-3.00415e-60
-9.04019e-58
-8.32432e-58
3.34472e-56
9.65616e-56
-5.92741e-55
-7.58858e-54
-6.59811e-55
3.26986e-52
8.08168e-52
-3.53422e-51
-1.18461e-49
-2.46511e-48
-4.70397e-47
-3.07942e-46
-1.48008e-46
6.02272e-45
1.0758e-43
1.56581e-42
2.11134e-41
2.68604e-40
3.2389e-39
3.71067e-38
4.04667e-37
4.20788e-36
4.17845e-35
3.96793e-34
3.60806e-33
3.14532e-32
2.63159e-31
2.11536e-30
1.63522e-29
1.2167e-28
8.72101e-28
6.02645e-27
4.01775e-26
2.58598e-25
1.60792e-24
9.66395e-24
5.61746e-23
3.15969e-22
1.7206e-21
9.07492e-21
4.63786e-20
2.29762e-19
1.10379e-18
5.14383e-18
2.32608e-17
1.021e-16
4.35126e-16
1.80094e-15
7.24069e-15
2.82847e-14
1.07374e-13
3.96183e-13
1.42106e-12
4.95575e-12
1.6805e-11
5.54169e-11
1.77729e-10
5.54393e-10
1.68205e-09
4.96403e-09
1.42499e-08
3.97891e-08
1.08064e-07
2.8546e-07
7.33371e-07
1.83223e-06
4.4511e-06
1.0513e-05
2.41375e-05
5.38622e-05
0.000116792
0.000246025
0.000503345
0.000999882
0.00192791
0.00360682
0.00654474
0.0115134
0.0196274
0.0324076
0.0517996
0.0801042
0.119778
0.173073
0.241518
0.325306
0.42271
0.529721
0.640116
0.746085
0.839429
0.913104
0.962875
0.98912
0.998252
0.999886
0.999998
1
1
1
1
1
1
1
1
1
1
1
1
1
1
1
1
1
1
1
1
1
1
1
1
1
1
1
1
1
1
1
1
1
1
1
1
1
1
1
1
1
1
1
1
1
1
1
1
1
1
1
1
1
1
1
1
1
1
1
1
1
1
1
1
1
1
1
0.999999
0.999998
0.999996
0.999989
0.999976
0.999946
0.999883
0.999753
0.999496
0.998998
0.998069
0.996387
0.993446
0.988471
0.980349
0.967556
0.948149
0.919824
0.880127
0.826807
0.758337
0.674528
0.577111
0.470098
0.359713
0.253766
0.160454
0.0868151
0.0370796
0.0108612
0.00174394
0.000113681
2.1634e-06
8.86222e-09
6.07737e-12
6.15591e-16
5.36562e-20
4.71077e-24
4.12542e-28
3.59062e-32
3.10462e-36
2.66962e-40
2.28669e-44
1.9544e-48
1.66908e-52
1.42573e-56
1.21881e-60
1.04292e-64
8.93203e-69
7.65478e-73
6.56267e-77
5.62714e-81
4.82477e-85
4.13622e-89
3.5453e-93
3.03828e-97
2.60343e-101
2.23062e-105
1.91111e-109
1.63734e-113
1.40279e-117
1.20185e-121
1.0297e-125
8.82214e-130
7.55844e-134
6.47567e-138
5.5479e-142
4.75294e-146
4.0718e-150
3.48818e-154
2.98815e-158
2.55974e-162
2.19271e-166
1.87828e-170
1.6089e-174
1.37814e-178
1.18045e-182
1.01111e-186
8.6604e-191
7.41777e-195
6.35334e-199
5.44157e-203
4.66059e-207
3.99164e-211
3.41866e-215
2.92789e-219
2.50754e-223
2.14751e-227
1.83916e-231
1.57506e-235
1.34886e-239
1.15514e-243
9.89223e-248
8.47127e-252
7.25433e-256
6.21212e-260
5.31956e-264
4.55518e-268
3.90057e-272
3.33998e-276
2.85991e-280
2.4488e-284
2.09676e-288
1.79529e-292
1.53714e-296
1.31609e-300
1.1268e-304
9.64722e-309
8.25942e-313
7.07112e-317
6.04736e-321
0
0
0
0
0
0
0
0
0
0
0
0
0
0
0
0
0
0
0
0
0
0
0
0
0
0
0
0
0
0
0
0
0
0
0
0
0
0
0
0
0
0
0
0
0
0
0
0
0
0
0
0
0
0
0
0
0
0
0
0
0
0
0
0
0
0
0
0
0
0
0
0
0
0
0
0
0
0
0
0
0
0
0
0
0
0
0
0
0
0
0
0
0
0
0
0
0
0
0
0
0
0
0
0
0
0
0
0
0
0
0
0
0
0
0
0
0
0
0
0
0
0
0
0
0
0
0
0
0
0
0
0
0
0
0
0
0
0
0
0
0
0
0
0
0
0
0
0
0
0
0
0
0
0
0
0
0
0
0
0
0
0
0
0
0
0
0
0
0
0
0
0
0
0
0
0
0
0
0
0
0
0
0
0
0
0
0
0
0
0
0
0
0
0
0
0
0
0
0
0
0
0
0
0
0
0
0
0
0
0
0
0
0
0
0
0
0
0
0
0
0
0
0
0
0
0
0
0
0
0
0
0
0
0
0
0
0
0
0
0
0
0
0
0
0
0
0
0
0
0
0
0
0
0
0
0
0
0
0
0
0
0
0
0
0
0
0
0
0
0
0
)
;

boundaryField
{
    sides
    {
        type            zeroGradient;
    }
    empty
    {
        type            empty;
    }
}


// ************************************************************************* //
