/*--------------------------------*- C++ -*----------------------------------*\
| =========                 |                                                 |
| \\      /  F ield         | OpenFOAM: The Open Source CFD Toolbox           |
|  \\    /   O peration     | Version:  2312                                  |
|   \\  /    A nd           | Website:  www.openfoam.com                      |
|    \\/     M anipulation  |                                                 |
\*---------------------------------------------------------------------------*/
FoamFile
{
    version     2.0;
    format      ascii;
    arch        "LSB;label=32;scalar=64";
    class       volScalarField;
    location    "0.3";
    object      T;
}
// * * * * * * * * * * * * * * * * * * * * * * * * * * * * * * * * * * * * * //

dimensions      [0 0 0 1 0 0 0];

internalField   nonuniform List<scalar> 
1000
(
0
0
0
0
0
0
0
0
0
0
0
0
0
0
0
0
0
0
0
0
0
0
0
0
0
0
0
0
0
0
0
0
0
0
0
0
0
0
0
0
0
0
0
0
0
0
0
0
0
0
0
0
0
0
0
0
0
0
0
0
0
0
0
0
0
0
0
0
0
0
0
0
0
0
0
0
0
0
0
0
0
0
0
0
0
0
0
0
0
0
0
0
0
0
0
0
0
0
0
0
0
0
0
0
0
0
0
0
0
0
0
0
0
0
0
0
0
0
0
0
0
0
0
0
0
0
0
0
0
0
0
0
0
0
0
0
0
0
0
0
0
0
0
0
0
0
0
0
0
0
0
0
0
0
0
0
0
0
0
0
0
0
0
0
0
0
0
0
0
0
0
0
0
0
0
0
0
0
0
0
0
0
0
0
0
0
0
0
0
0
0
0
0
0
0
0
0
0
0
0
0
0
0
0
0
0
0
0
0
0
0
0
0
0
0
0
0
0
0
0
0
0
0
0
0
0
0
0
0
0
4.94066e-324
-1.22528e-321
1.95778e-319
-3.07062e-317
4.73677e-315
-7.18757e-313
1.07294e-310
-1.57584e-308
2.27741e-306
-3.23898e-304
4.53374e-302
-6.24642e-300
8.47178e-298
-1.13117e-295
1.48707e-293
-1.92496e-291
2.45381e-289
-3.0805e-287
3.80891e-285
-4.63888e-283
5.56535e-281
-6.57764e-279
7.65912e-277
-8.78715e-275
9.93363e-273
-1.10659e-270
1.21483e-268
-1.31436e-266
1.40158e-264
-1.47314e-262
1.52623e-260
-1.55874e-258
1.56935e-256
-1.55772e-254
1.52439e-252
-1.47085e-250
1.39932e-248
-1.31271e-246
1.21434e-244
-1.10777e-242
9.96581e-241
-8.84192e-239
7.73691e-237
-6.67715e-235
5.6837e-233
-4.77202e-231
3.95201e-229
-3.22843e-227
2.60156e-225
-2.06804e-223
1.62171e-221
-1.25456e-219
9.57467e-218
-7.20903e-216
5.35501e-214
-3.92448e-212
2.8376e-210
-2.02429e-208
1.4248e-206
-9.89472e-205
6.77989e-203
-4.58373e-201
3.0577e-199
-2.01259e-197
1.30709e-195
-8.37615e-194
5.29635e-192
-3.30448e-190
2.03435e-188
-1.23579e-186
7.40731e-185
-4.38099e-183
2.5567e-181
-1.47224e-179
8.36513e-178
-4.6898e-176
2.59431e-174
-1.41603e-172
7.62611e-171
-4.05234e-169
2.12461e-167
-1.09904e-165
5.60926e-164
-2.82454e-162
1.40324e-160
-6.87782e-159
3.3258e-157
-1.58656e-155
7.46667e-154
-3.46652e-152
1.58762e-150
-7.17254e-149
3.19642e-147
-1.40509e-145
6.09229e-144
-2.60544e-142
1.09898e-140
-4.57184e-139
1.87573e-137
-7.58944e-136
3.02826e-134
-1.19153e-132
4.62297e-131
-1.76859e-129
6.67113e-128
-2.48096e-126
9.09635e-125
-3.28789e-123
1.17152e-121
-4.11469e-120
1.42448e-118
-4.86054e-117
1.63452e-115
-5.41691e-114
1.76904e-112
-5.6927e-111
1.80495e-109
-5.6383e-108
1.73514e-106
-5.26005e-105
1.57066e-103
-4.61928e-102
1.33793e-100
-3.81609e-99
1.07175e-97
-2.96359e-96
8.06774e-95
-2.16198e-93
5.70261e-92
-1.48038e-90
3.78187e-89
-9.50655e-88
2.35112e-86
-5.72017e-85
1.36891e-83
-3.22195e-82
7.45734e-81
-1.69712e-79
3.79705e-78
-8.3507e-77
1.80501e-75
-3.83396e-74
8.00135e-73
-1.64042e-71
3.3033e-70
-6.53238e-69
1.26837e-67
-2.41763e-66
4.52294e-65
-8.30334e-64
1.49554e-62
-2.64217e-61
4.57771e-60
-7.77603e-59
1.29476e-57
-2.11266e-56
3.37733e-55
-5.2881e-54
8.10754e-53
-1.21679e-51
1.78709e-50
-2.56769e-49
3.60799e-48
-4.95633e-47
6.65383e-46
-8.7264e-45
1.11758e-43
-1.39708e-42
1.704e-41
-2.02688e-40
2.35007e-39
-2.65465e-38
2.91993e-37
-3.12554e-36
3.25387e-35
-3.29242e-34
3.23573e-33
-3.08636e-32
2.85495e-31
-2.55891e-30
2.22034e-29
-1.86321e-28
1.51047e-27
-1.18158e-26
8.90756e-26
-6.4622e-25
4.50451e-24
-3.01162e-23
1.92745e-22
-1.17821e-21
6.86133e-21
-3.79525e-20
1.98695e-19
-9.80407e-19
4.5355e-18
-1.95415e-17
7.77309e-17
-2.81984e-16
9.15987e-16
-2.58372e-15
5.94928e-15
-9.36529e-15
6.23657e-16
5.80716e-14
-2.23282e-13
4.27094e-13
-3.14968e-14
-2.53488e-12
7.54958e-12
-5.04876e-12
-3.23376e-11
1.02802e-10
-2.39857e-11
-5.42862e-10
1.02454e-09
1.54966e-09
-7.52093e-09
-6.58713e-10
4.06173e-08
-2.19385e-08
-2.00751e-07
1.57951e-07
1.00157e-06
-6.19859e-07
-5.08361e-06
1.95657e-07
2.40182e-05
2.12661e-05
-8.52499e-05
-0.000205185
6.81434e-05
0.000992037
0.00154777
-0.000935745
-0.00829703
-0.0161487
-0.0095447
0.034558
0.136234
0.298632
0.501144
0.705898
0.874385
0.983843
1.03387
1.04118
1.02801
1.01185
1.00125
0.997249
0.997309
0.998649
0.99972
1.00016
1.00019
1.0001
1.00002
0.999988
0.999988
0.999995
1
1
1
1
1
1
1
1
1
1
1
1
1
1
1
1
1
1
1
1
1
1
1
1
1
1
1
1
1
1
1
1
1
1
1
1
1
1
1
1
1
1
1
1
1
1
1
1
1
1
1
1
1
1
1
1
1
1
1
1
1
1
0.999999
1
1.00001
1
0.999976
0.999979
1.00009
1.00021
0.999932
0.999008
0.998452
1.00094
1.0083
1.01615
1.00954
0.965442
0.863766
0.701368
0.498856
0.294102
0.125615
0.0161573
-0.0338682
-0.0411816
-0.0280071
-0.0118476
-0.00124903
0.00275058
0.00269059
0.0013507
0.000279838
-0.000163102
-0.000193885
-9.51334e-05
-1.69394e-05
1.16954e-05
1.15602e-05
4.64501e-06
3.07827e-07
-8.11071e-07
-5.38872e-07
-1.43423e-07
2.63454e-08
4.19669e-08
1.7457e-08
1.44089e-09
-2.37963e-09
-1.44339e-09
-3.0353e-10
9.40907e-11
9.38451e-11
2.85251e-11
-1.63854e-12
-5.0837e-12
-1.98822e-12
-1.14303e-13
2.36693e-13
1.14902e-13
1.45541e-14
-9.66349e-15
-5.77879e-15
-1.00544e-15
3.51374e-16
2.60033e-16
5.40983e-17
-1.15571e-17
-1.06625e-17
-2.47704e-18
3.50978e-19
4.03614e-19
1.00189e-19
-1.0152e-20
-1.4236e-20
-3.65044e-21
2.92068e-22
4.70879e-22
1.21172e-22
-8.7243e-24
-1.46643e-23
-3.68832e-24
2.7483e-25
4.30817e-25
1.03292e-25
-8.92182e-27
-1.19443e-26
-2.66361e-27
2.86605e-28
3.12251e-28
6.31435e-29
-8.80933e-30
-7.68468e-30
-1.36985e-30
2.54003e-31
1.77663e-31
2.69546e-32
-6.80626e-33
-3.84872e-33
-4.72923e-34
1.68892e-34
7.78964e-35
7.13638e-36
-3.87775e-36
-1.46783e-36
-8.4104e-38
8.23983e-38
2.56349e-38
4.76514e-40
-1.62109e-39
-4.12343e-40
1.11581e-41
2.95342e-41
6.05004e-42
-5.11626e-43
-4.98084e-43
-7.96412e-44
1.30947e-44
7.76622e-45
9.1014e-46
-2.67067e-46
-1.1168e-46
-8.31163e-48
4.70974e-48
1.47464e-48
4.24003e-50
-7.41117e-50
-1.77412e-50
4.28059e-52
1.05589e-51
1.91765e-52
-1.77013e-53
-1.37135e-53
-1.81042e-54
3.52795e-55
1.62695e-55
1.39353e-56
-5.48949e-57
-1.75978e-57
-6.73829e-59
7.3339e-59
1.72365e-59
-2.63369e-61
-8.70769e-61
-1.50606e-61
1.26766e-62
9.32564e-63
1.13574e-63
-2.16152e-64
-9.05887e-65
-6.76698e-66
2.78991e-66
7.97474e-67
2.1048e-68
-3.06306e-68
-6.31262e-69
1.86783e-70
2.97637e-70
4.40663e-71
-4.63787e-72
-2.60188e-72
-2.58749e-73
6.03458e-74
2.05765e-74
1.10049e-75
-6.20523e-76
-1.46894e-76
-6.44893e-79
5.50337e-78
9.36063e-79
-5.23258e-80
-4.34647e-80
-5.17571e-81
7.49651e-82
3.09702e-82
2.30096e-83
-7.37109e-84
-1.99735e-84
-5.9518e-86
6.024e-86
1.16021e-86
-2.38165e-88
-4.3273e-88
-5.97174e-89
5.19409e-90
2.79433e-90
2.61356e-91
-5.11874e-92
-1.63659e-92
-8.57427e-94
3.92733e-94
8.69965e-95
8.2106e-97
-2.59604e-96
-4.16612e-97
1.73783e-98
1.5333e-98
1.76064e-99
-1.99693e-100
-8.22076e-101
-6.22885e-102
1.50172e-102
4.02566e-103
1.54136e-104
-9.3363e-105
-1.79971e-105
3.52436e-108
5.11797e-107
7.28915e-108
-3.70806e-109
-2.54008e-109
-2.62221e-110
3.15245e-111
1.15567e-111
7.97553e-113
-1.94099e-113
-4.84629e-114
-1.74517e-115
1.01517e-115
1.87419e-116
1.82856e-119
-4.74706e-118
-6.65471e-119
2.67778e-120
2.03048e-120
2.14399e-121
-2.03616e-122
-8.03874e-123
-6.10065e-124
1.10054e-124
2.96451e-125
1.42999e-126
-5.04952e-127
-1.02142e-127
-2.09526e-129
2.07873e-129
3.28948e-130
-3.08338e-132
-7.87137e-132
-9.87889e-133
4.36117e-134
2.77881e-134
2.74978e-135
-2.4265e-136
-9.22126e-137
-7.00425e-138
1.05348e-138
2.89199e-139
1.5889e-140
-4.00088e-141
-8.60455e-142
-2.99796e-143
1.38597e-143
2.43549e-144
3.61297e-146
-4.47034e-146
-6.57169e-147
3.81685e-149
1.35864e-148
1.69321e-149
-4.70945e-151
-3.92146e-151
-4.17113e-152
2.16817e-153
1.08097e-153
9.83559e-155
-7.79368e-156
-2.85822e-156
-2.22241e-157
2.46058e-158
7.27535e-159
4.81802e-160
-7.11967e-161
-1.78827e-161
-1.00388e-162
1.9273e-163
4.25632e-164
2.01573e-165
-4.93848e-166
-9.83453e-167
-3.91794e-168
1.20669e-168
2.21103e-169
7.42616e-171
-2.82555e-171
-4.84689e-172
-1.38866e-173
6.36227e-174
1.03791e-174
2.60452e-176
-1.38086e-176
-2.17445e-177
-4.99682e-179
2.89325e-179
4.46206e-180
9.973e-182
-5.857e-182
-8.97505e-183
-2.08373e-184
1.14568e-184
1.76996e-185
4.5222e-187
-2.16405e-187
-3.42145e-188
-1.00193e-189
3.94105e-190
6.47808e-191
2.22383e-192
-6.90106e-193
-1.19985e-193
-4.86972e-195
1.15683e-195
2.17014e-196
1.04112e-197
-1.84334e-198
-3.8243e-199
-2.15901e-200
2.75939e-201
6.5479e-202
4.32549e-203
-3.79811e-204
-1.08547e-204
-8.35115e-206
4.59165e-207
1.73452e-207
1.55083e-208
-4.27085e-210
-2.65601e-210
-2.7651e-211
1.10795e-213
3.86516e-213
4.72367e-214
7.94601e-216
-5.27785e-216
-7.71033e-217
-2.77465e-218
6.6148e-219
1.19784e-219
6.52584e-221
-7.27113e-222
-1.76104e-222
-1.29301e-223
6.17049e-225
2.42831e-225
2.2918e-226
-1.65437e-228
-3.09405e-228
-3.71554e-229
-8.50042e-231
3.54193e-231
5.55023e-232
2.68025e-233
-3.41558e-234
-7.62535e-235
-5.5357e-236
2.21928e-237
9.52866e-238
9.46698e-239
6.21257e-241
-1.05425e-240
-1.42004e-241
-5.6082e-243
9.65133e-244
1.89631e-244
1.29176e-245
-5.68308e-247
-2.23698e-247
-2.20683e-248
-2.36583e-250
2.24759e-250
3.16024e-251
1.48172e-252
-1.71116e-253
-3.89346e-254
-3.06987e-255
4.56026e-257
4.05728e-257
4.72427e-258
1.54733e-259
-3.28817e-260
-5.98107e-261
-4.08534e-262
1.34142e-263
6.25763e-264
6.64074e-265
1.74341e-266
-5.01444e-267
-8.42718e-268
-5.5024e-269
1.99271e-270
8.5614e-271
9.0146e-272
2.54052e-273
-6.37095e-274
-1.10539e-274
-7.65309e-276
1.7647e-277
1.04522e-277
1.18378e-278
4.4806e-280
-6.60642e-281
-1.34025e-281
-1.06985e-282
-5.06684e-286
1.11114e-284
1.47085e-285
7.86261e-287
-4.86958e-288
-1.45748e-288
-1.42585e-289
-3.87052e-291
9.52258e-292
1.65995e-292
1.22947e-293
-6.08131e-296
-1.33298e-295
-1.71205e-296
-9.28534e-298
4.94603e-299
1.59727e-299
1.63414e-300
5.77543e-302
-8.67249e-303
-1.73891e-303
-1.46251e-304
-2.26384e-306
1.15182e-306
1.77134e-307
1.23837e-308
-8.72011e-311
-1.34027e-310
-1.71936e-311
-9.99275e-313
3.40166e-314
1.43873e-314
1.61137e-315
7.74158e-317
-5.23021e-318
-1.4618e-318
-1.4736e-319
-5.81515e-321
6.42285e-322
1.43279e-322
4.94066e-324
0
0
0
0
0
0
)
;

boundaryField
{
    sides
    {
        type            zeroGradient;
    }
    empty
    {
        type            empty;
    }
}


// ************************************************************************* //
