/*--------------------------------*- C++ -*----------------------------------*\
| =========                 |                                                 |
| \\      /  F ield         | OpenFOAM: The Open Source CFD Toolbox           |
|  \\    /   O peration     | Version:  2312                                  |
|   \\  /    A nd           | Website:  www.openfoam.com                      |
|    \\/     M anipulation  |                                                 |
\*---------------------------------------------------------------------------*/
FoamFile
{
    version     2.0;
    format      ascii;
    arch        "LSB;label=32;scalar=64";
    class       volScalarField;
    location    "4.4";
    object      T;
}
// * * * * * * * * * * * * * * * * * * * * * * * * * * * * * * * * * * * * * //

dimensions      [0 0 0 1 0 0 0];

internalField   nonuniform List<scalar> 
1000
(
0
0
0
0
0
0
0
0
0
0
0
0
0
0
0
0
0
0
0
0
0
0
0
0
0
0
0
0
0
0
0
0
0
0
0
0
0
0
0
0
0
0
0
0
0
0
0
0
0
0
0
0
0
0
0
0
0
0
0
0
0
0
0
0
0
0
0
0
0
0
0
0
0
0
0
0
0
0
0
0
0
0
0
0
0
0
0
0
0
0
0
0
0
0
0
0
0
0
0
0
0
0
0
0
0
0
0
0
0
0
0
0
0
0
0
0
0
0
0
0
0
0
0
0
0
0
0
0
0
0
0
0
0
0
0
0
0
0
0
0
0
0
0
0
0
0
0
0
0
0
0
0
0
0
0
0
0
0
0
0
0
0
0
0
0
0
0
0
0
0
0
0
0
0
0
0
0
0
0
0
0
0
0
0
0
0
0
0
0
0
0
0
0
0
0
0
0
0
0
0
0
0
0
0
0
0
0
0
0
0
0
0
0
0
0
0
0
0
0
0
0
0
0
0
0
0
0
0
0
0
0
0
0
0
0
0
0
0
0
0
0
0
0
0
0
0
0
0
0
0
0
0
0
0
0
0
0
0
0
0
0
0
0
0
0
0
0
0
0
0
0
0
0
0
0
0
0
0
0
0
0
0
0
0
0
0
0
0
0
0
0
0
0
0
0
0
0
0
0
0
0
0
0
0
0
0
0
0
0
0
0
0
0
0
0
0
0
0
0
0
0
0
0
0
0
0
0
0
0
0
0
0
0
0
0
0
0
0
0
0
0
0
0
0
0
0
0
0
0
0
0
0
0
0
0
0
0
0
0
0
0
0
0
0
0
0
0
0
0
0
0
0
0
0
0
0
0
0
0
0
0
0
0
0
0
0
0
0
0
0
0
0
0
0
0
0
0
0
0
0
0
0
0
0
0
0
0
0
0
0
0
0
0
0
0
0
0
0
0
0
0
0
0
0
0
0
0
0
0
0
0
0
0
0
0
0
0
0
0
0
0
0
0
0
0
0
0
0
0
0
2.26973e-126
6.37794e-124
8.96314e-122
8.39948e-120
5.90485e-118
3.32169e-116
1.55751e-114
6.26125e-113
2.20294e-111
6.89119e-110
1.94058e-108
4.96914e-107
1.16666e-105
2.52901e-104
5.09185e-103
9.57063e-102
1.68686e-100
2.79895e-99
4.38722e-98
6.51639e-97
9.19711e-96
1.23655e-94
1.58734e-93
1.94952e-92
2.29512e-91
2.59453e-90
2.82087e-89
2.95407e-88
2.98379e-87
2.91057e-86
2.74517e-85
2.50625e-84
2.21715e-83
1.90242e-82
1.58473e-81
1.28268e-80
1.00961e-79
7.7338e-79
5.76971e-78
4.19506e-77
2.97461e-76
2.05828e-75
1.39064e-74
9.17936e-74
5.92283e-73
3.73758e-72
2.30787e-71
1.39507e-70
8.25926e-70
4.79111e-69
2.72434e-68
1.51912e-67
8.30984e-67
4.46094e-66
2.35096e-65
1.21675e-64
6.18637e-64
3.09092e-63
1.51807e-62
7.33123e-62
3.48231e-61
1.62736e-60
7.48415e-60
3.38811e-59
1.51021e-58
6.62966e-58
2.86694e-57
1.22157e-56
5.12969e-56
2.12338e-55
8.66604e-55
3.48786e-54
1.38461e-53
5.42265e-53
2.09552e-52
7.99187e-52
3.00856e-51
1.11814e-50
4.10332e-50
1.48713e-49
5.32358e-49
1.88265e-48
6.57828e-48
2.27142e-47
7.75152e-47
2.61482e-46
8.72016e-46
2.87536e-45
9.37566e-45
3.02351e-44
9.64437e-44
3.04329e-43
9.5011e-43
2.93505e-42
8.97261e-42
2.71477e-41
8.13029e-41
2.41038e-40
7.07484e-40
2.05611e-39
5.91723e-39
1.68646e-38
4.7606e-38
1.33112e-37
3.6871e-37
1.01182e-36
2.75114e-36
7.41229e-36
1.97906e-35
5.23686e-35
1.37349e-34
3.57072e-34
9.20239e-34
2.35122e-33
5.95616e-33
1.49608e-32
3.72643e-32
9.20473e-32
2.25498e-31
5.47919e-31
1.32058e-30
3.15733e-30
7.48874e-30
1.76222e-29
4.1144e-29
9.53177e-29
2.19124e-28
4.99898e-28
1.13182e-27
2.54334e-27
5.67266e-27
1.25589e-26
2.7601e-26
6.02185e-26
1.30435e-25
2.80504e-25
5.98949e-25
1.2699e-24
2.67364e-24
5.59001e-24
1.1607e-23
2.39358e-23
4.90252e-23
9.97368e-23
2.01547e-22
4.04581e-22
8.06793e-22
1.59833e-21
3.14587e-21
6.15181e-21
1.19529e-20
2.30766e-20
4.42709e-20
8.43977e-20
1.59893e-19
3.01043e-19
5.63316e-19
1.04765e-18
1.93658e-18
3.55821e-18
6.49862e-18
1.17983e-17
2.12935e-17
3.82047e-17
6.81471e-17
1.20852e-16
2.13087e-16
3.73565e-16
6.51181e-16
1.1287e-15
1.9454e-15
3.33437e-15
5.68335e-15
9.63379e-15
1.62408e-14
2.723e-14
4.54081e-14
7.53148e-14
1.24251e-13
2.03897e-13
3.32831e-13
5.40445e-13
8.72992e-13
1.40285e-12
2.2427e-12
3.56697e-12
5.64432e-12
8.88627e-12
1.39199e-11
2.16958e-11
3.36472e-11
5.19242e-11
7.97352e-11
1.21843e-10
1.85284e-10
2.80394e-10
4.22287e-10
6.32947e-10
9.44188e-10
1.40182e-09
2.07148e-09
3.04675e-09
4.46036e-09
6.49968e-09
9.42789e-09
1.36128e-08
1.95661e-08
2.79959e-08
3.98775e-08
5.65479e-08
7.98309e-08
1.12203e-07
1.57008e-07
2.18744e-07
3.03432e-07
4.19086e-07
5.76335e-07
7.89196e-07
1.07608e-06
1.46105e-06
1.97539e-06
2.65963e-06
3.56597e-06
4.76141e-06
6.33144e-06
8.38471e-06
1.10587e-05
1.45264e-05
1.90047e-05
2.4764e-05
3.21403e-05
4.15487e-05
5.34998e-05
6.86188e-05
8.76679e-05
0.000111572
0.000141447
0.000178636
0.000224744
0.000281684
0.000351722
0.000437533
0.000542256
0.000669562
0.000823718
0.00100967
0.0012331
0.00150055
0.00181945
0.00219827
0.00264656
0.00317506
0.00379578
0.00452209
0.00536878
0.00635215
0.00749004
0.0088019
0.0103088
0.0120334
0.0139999
0.0162343
0.0187639
0.0216173
0.0248245
0.0284166
0.0324255
0.0368837
0.0418242
0.04728
0.0532837
0.0598675
0.0670623
0.0748978
0.0834016
0.0925993
0.102513
0.113164
0.124566
0.136732
0.149669
0.163381
0.177864
0.193113
0.209114
0.225849
0.243294
0.26142
0.280192
0.29957
0.319508
0.339957
0.360863
0.382166
0.403807
0.425719
0.447837
0.470092
0.492414
0.514733
0.536979
0.559085
0.580982
0.602606
0.623895
0.644788
0.665232
0.685174
0.704569
0.723373
0.741551
0.759069
0.775902
0.792028
0.807431
0.822099
0.836027
0.849213
0.861659
0.873373
0.884366
0.894652
0.904248
0.913176
0.921457
0.929116
0.936179
0.942675
0.94863
0.954075
0.959038
0.963549
0.967636
0.971327
0.97465
0.977632
0.980298
0.982671
0.984775
0.98663
0.988256
0.98967
0.990889
0.991926
0.992794
0.993502
0.994058
0.99447
0.99474
0.994872
0.994864
0.994715
0.99442
0.993973
0.993365
0.992585
0.99162
0.990454
0.989071
0.987451
0.985573
0.983412
0.980944
0.978142
0.974978
0.971421
0.967442
0.963008
0.958088
0.952649
0.946658
0.940086
0.9329
0.925072
0.916574
0.907381
0.897471
0.886824
0.875424
0.863261
0.850325
0.836615
0.822132
0.806884
0.790883
0.774149
0.756704
0.738579
0.719807
0.70043
0.680492
0.660043
0.639137
0.617833
0.596193
0.57428
0.552163
0.529908
0.507586
0.485267
0.463021
0.440915
0.419018
0.397394
0.376105
0.355212
0.334768
0.314826
0.295431
0.276627
0.258449
0.240931
0.224098
0.207972
0.192569
0.1779
0.163972
0.150786
0.13834
0.126625
0.115632
0.105345
0.095748
0.0868195
0.078537
0.0708758
0.0638097
0.0573109
0.0513508
0.0459003
0.0409298
0.0364098
0.032311
0.0286045
0.0252621
0.0222564
0.0195609
0.0171504
0.0150005
0.0130884
0.0113924
0.00989214
0.0085687
0.00740436
0.00638277
0.00548883
0.00470868
0.00402967
0.00344025
0.00292997
0.00248936
0.00210992
0.00178401
0.00150482
0.00126628
0.00106299
0.000890202
0.000743718
0.000619854
0.000515386
0.000427504
0.000353764
0.000292047
0.000240526
0.000197624
0.000161991
0.000132469
0.000108072
8.79604e-05
7.14234e-05
5.78595e-05
4.67617e-05
3.77042e-05
3.03301e-05
2.43415e-05
1.94899e-05
1.5569e-05
1.24082e-05
9.86616e-06
7.82683e-06
6.19473e-06
4.8917e-06
3.8539e-06
3.02932e-06
2.37573e-06
1.8589e-06
1.4512e-06
1.13035e-06
8.78439e-07
6.81126e-07
5.26941e-07
4.06741e-07
3.13254e-07
2.40714e-07
1.84558e-07
1.41186e-07
1.07766e-07
8.20746e-08
6.23691e-08
4.72898e-08
3.57771e-08
2.70075e-08
2.03427e-08
1.52889e-08
1.14655e-08
8.57948e-09
6.4059e-09
4.77259e-09
3.548e-09
2.63192e-09
1.94814e-09
1.43891e-09
1.0605e-09
7.79923e-10
5.72352e-10
4.19127e-10
3.06268e-10
2.23322e-10
1.62495e-10
1.17985e-10
8.5486e-11
6.18083e-11
4.45947e-11
3.21076e-11
2.30686e-11
1.65397e-11
1.18338e-11
8.44927e-12
6.0202e-12
4.28058e-12
3.03736e-12
2.15076e-12
1.51983e-12
1.07178e-12
7.54266e-13
5.29732e-13
3.7128e-13
2.59694e-13
1.81276e-13
1.26281e-13
8.77925e-14
6.09117e-14
4.21764e-14
2.91451e-14
2.00998e-14
1.3834e-14
9.50249e-15
6.51423e-15
4.45682e-15
3.04318e-15
)
;

boundaryField
{
    sides
    {
        type            zeroGradient;
    }
    empty
    {
        type            empty;
    }
}


// ************************************************************************* //
