/*--------------------------------*- C++ -*----------------------------------*\
| =========                 |                                                 |
| \\      /  F ield         | OpenFOAM: The Open Source CFD Toolbox           |
|  \\    /   O peration     | Version:  2312                                  |
|   \\  /    A nd           | Website:  www.openfoam.com                      |
|    \\/     M anipulation  |                                                 |
\*---------------------------------------------------------------------------*/
FoamFile
{
    version     2.0;
    format      ascii;
    arch        "LSB;label=32;scalar=64";
    class       volScalarField;
    location    "1.4";
    object      T;
}
// * * * * * * * * * * * * * * * * * * * * * * * * * * * * * * * * * * * * * //

dimensions      [0 0 0 1 0 0 0];

internalField   nonuniform List<scalar> 
1000
(
9.84961e-129
-3.9562e-128
1.5298e-127
-5.9464e-127
2.30671e-126
-8.93288e-126
3.45336e-125
-1.33273e-124
5.13445e-124
-1.97466e-123
7.58113e-123
-2.90549e-122
1.11159e-121
-4.24531e-121
1.61849e-120
-6.1595e-120
2.33999e-119
-8.87384e-119
3.35921e-118
-1.26937e-117
4.78813e-117
-1.80287e-116
6.77612e-116
-2.54223e-115
9.52061e-115
-3.559e-114
1.32801e-113
-4.94632e-113
1.83895e-112
-6.82435e-112
2.52787e-111
-9.34646e-111
3.44934e-110
-1.27063e-109
4.67194e-109
-1.7146e-108
6.28083e-108
-2.29645e-107
8.38066e-107
-3.05268e-106
1.10984e-105
-4.02733e-105
1.45863e-104
-5.27285e-104
1.90245e-103
-6.85087e-103
2.4623e-102
-8.8328e-102
3.16237e-101
-1.13001e-100
4.03001e-100
-1.43443e-99
5.09565e-99
-1.80661e-98
6.39253e-98
-2.25746e-97
7.95618e-97
-2.79848e-96
9.82365e-96
-3.44153e-95
1.20325e-94
-4.1984e-94
1.46195e-93
-5.0804e-93
1.76189e-92
-6.09777e-92
2.10607e-91
-7.25904e-91
2.49684e-90
-8.57039e-90
2.93568e-89
-1.00349e-88
3.42298e-88
-1.16516e-87
3.9578e-87
-1.34154e-86
4.53765e-86
-1.53156e-85
5.15837e-85
-1.73364e-84
5.81396e-84
-1.94558e-83
6.49659e-83
-2.16461e-82
7.19658e-82
-2.38739e-81
7.90256e-81
-2.61009e-80
8.60169e-80
-2.82845e-79
9.27998e-79
-3.03791e-78
9.92272e-78
-3.23377e-77
1.05149e-76
-3.4113e-76
1.10419e-75
-3.56599e-75
1.149e-74
-3.69369e-74
1.18468e-73
-3.79082e-73
1.2102e-72
-3.85449e-72
1.22478e-71
-3.88267e-71
1.22794e-70
-3.87432e-70
1.2195e-69
-3.82938e-69
1.1996e-68
-3.74885e-68
1.16872e-67
-3.63474e-67
1.12766e-66
-3.48995e-66
1.07745e-65
-3.31821e-65
1.01938e-64
-3.12387e-64
9.54916e-64
-2.91173e-63
8.85615e-63
-2.68685e-62
8.13095e-62
-2.45434e-61
7.38955e-61
-2.21915e-60
6.64719e-60
-1.98594e-59
5.91785e-59
-1.75886e-58
5.21385e-58
-1.5415e-57
4.5455e-57
-1.3368e-56
3.92098e-56
-1.14699e-55
3.34624e-55
-9.73603e-55
2.82506e-54
-8.17506e-54
2.3592e-53
-6.78962e-53
1.94862e-52
-5.57702e-52
1.59172e-51
-4.5302e-51
1.28572e-50
-3.6387e-50
1.02687e-49
-2.88963e-49
8.10825e-49
-2.26862e-48
6.32904e-48
-1.76057e-47
4.88313e-47
-1.35042e-46
3.72357e-46
-1.02368e-45
2.8059e-45
-7.66797e-45
2.08921e-44
-5.67508e-44
1.53688e-43
-4.14938e-43
1.11684e-42
-2.99683e-42
8.01648e-42
-2.13772e-41
5.68275e-41
-1.5059e-40
3.97795e-40
-1.04746e-39
2.74933e-39
-7.19314e-39
1.87587e-38
-4.87613e-38
1.26336e-37
-3.26248e-37
8.39718e-37
-2.15414e-36
5.50757e-36
-1.40341e-35
3.56402e-35
-9.02023e-35
2.27514e-34
-5.71876e-34
1.43249e-33
-3.57575e-33
8.89449e-33
-2.20467e-32
5.44533e-32
-1.34015e-31
3.28643e-31
-8.03019e-31
1.955e-30
-4.74219e-30
1.14607e-29
-2.75952e-29
6.61967e-29
-1.58201e-28
3.76651e-28
-8.9334e-28
2.11072e-27
-4.96789e-27
1.16473e-26
-2.72009e-26
6.3275e-26
-1.46609e-25
3.38341e-25
-7.77686e-25
1.78031e-24
-4.05899e-24
9.21631e-24
-2.08401e-23
4.69281e-23
-1.05231e-22
2.34972e-22
-5.22444e-22
1.15664e-21
-2.54963e-21
5.5958e-21
-1.22275e-20
2.66005e-20
-5.76105e-20
1.2421e-19
-2.66589e-19
5.69559e-19
-1.21124e-18
2.5639e-18
-5.4017e-18
1.13267e-17
-2.36375e-17
4.90914e-17
-1.01461e-16
2.08669e-16
-4.27037e-16
8.69564e-16
-1.76176e-15
3.55121e-15
-7.12153e-15
1.42073e-14
-2.81951e-14
5.56585e-14
-1.09286e-13
2.13426e-13
-4.14529e-13
8.00686e-13
-1.53796e-12
2.93747e-12
-5.57856e-12
1.05333e-11
-1.97727e-11
3.6898e-11
-6.84451e-11
1.26198e-10
-2.3126e-10
4.21168e-10
-7.62219e-10
1.37069e-09
-2.44906e-09
4.34731e-09
-7.66589e-09
1.34272e-08
-2.33588e-08
4.03563e-08
-6.92346e-08
1.17934e-07
-1.99441e-07
3.34807e-07
-5.57866e-07
9.22495e-07
-1.51371e-06
2.46435e-06
-3.98001e-06
6.37564e-06
-1.01286e-05
1.5955e-05
-2.49163e-05
3.85687e-05
-5.91651e-05
8.99266e-05
-0.000135397
0.000201897
-0.000298087
0.000435651
-0.000630079
0.000901537
-0.00127575
0.0017848
-0.00246772
0.00337058
-0.00454592
0.00605112
-0.00794528
0.0102844
-0.0131146
0.0164626
-0.020325
0.0246554
-0.0293517
0.0342439
-0.0390869
0.0435587
-0.0472692
0.0497811
-0.0506455
0.0494521
-0.0458917
0.0398251
-0.0313491
0.0208473
-0.00901098
-0.00318277
0.0145466
-0.0238141
0.029818
-0.0316946
0.0290803
-0.0222578
0.0122086
-0.000536402
-0.0107507
0.0195832
-0.024245
0.0237757
-0.0182604
0.00891036
0.00212175
-0.0121914
0.0187963
-0.0202472
0.0161863
-0.00777878
-0.00252882
0.0116646
-0.0168456
0.0164797
-0.01075
0.0016403
0.00766845
-0.0138777
0.0147729
-0.0100981
0.00173011
0.0069843
-0.0125296
0.0126708
-0.00744096
-0.00080487
0.00836649
-0.0118378
0.00969096
-0.00304557
-0.00480883
0.00998409
-0.00993472
0.00479045
0.00265906
-0.00840065
0.00935445
-0.00509298
-0.00187521
0.00749864
-0.00852481
0.00444304
0.00217056
-0.0071971
0.00753025
-0.00306127
-0.00321816
0.00714698
-0.00615726
0.00102805
0.0046209
-0.00683343
0.00411939
0.00145385
-0.00574519
0.00559372
-0.00120022
-0.00400741
0.00600982
-0.00334971
-0.00169034
0.00490207
-0.00357137
-0.00128079
0.00575741
-0.0064107
0.00324246
0.000250907
-0.000116925
-0.00456151
0.0108742
-0.0147926
0.0149554
-0.0139903
0.0160375
-0.0227483
0.03161
-0.0383032
0.0408322
-0.041298
0.0434405
-0.0483949
0.0530775
-0.0530116
0.0467345
-0.0371202
0.0281619
-0.0207185
0.0119959
0.000548901
-0.0152643
0.0269601
-0.0316516
0.0300883
-0.0260428
0.0214873
-0.0145832
0.00305333
0.0112228
-0.0223759
0.0257588
-0.022103
0.0156425
-0.00879095
0.00035642
0.0104785
-0.020137
0.0227515
-0.0163918
0.00544951
0.00408091
-0.0102627
0.0145479
-0.016612
0.0130741
-0.00270579
-0.00941715
0.0157773
-0.0139543
0.00785238
-0.0015318
-0.00485861
0.0114421
-0.0143253
0.00916242
0.00178737
-0.0104246
0.0115869
-0.00757099
0.00261234
0.0028422
-0.00897894
0.0116056
-0.0062287
-0.00396063
0.0101352
-0.00844018
0.00317906
0.00132676
-0.00549441
0.00875344
-0.00647807
-0.00213792
0.0092298
-0.00776018
0.00104157
0.00358207
-0.00513734
0.00572599
-0.00304688
-0.00417876
0.00886786
-0.00448651
-0.00355151
0.00601566
-0.00350239
0.00122221
0.00174927
-0.00612742
0.00531798
0.00261395
-0.00743726
0.00313089
0.00229089
-0.00292143
0.00306754
-0.00281495
-0.0026224
0.00708598
-0.0017089
-0.00551782
0.00376477
0.000558369
-0.000701631
0.00255288
-0.00455101
-0.00169979
0.0071164
-0.000746596
-0.00494909
0.00125846
-3.58165e-05
0.00112365
0.00435928
-0.00412605
-0.00578595
0.00456386
0.00419823
-0.00123323
-0.000716435
-0.0038767
-0.00326997
0.0067849
0.00610036
-0.00445695
-0.00557147
-0.00215105
0.000132948
0.00737144
0.00804762
-0.00480097
-0.0114227
-0.00480228
0.00249497
0.00949072
0.0136858
0.0024878
-0.0155317
-0.0191933
-0.00907311
0.0061835
0.0249626
0.0335882
0.0159234
-0.018151
-0.0482047
-0.0641072
-0.0514827
0.00669523
0.105775
0.228146
0.365294
0.507059
0.633809
0.736908
0.821632
0.88698
0.928843
0.955482
0.976343
0.98887
0.992186
0.994947
0.999836
1.00058
0.997957
0.998961
1.00187
1.00053
0.997991
0.99977
1.00203
0.999967
0.997967
1.00023
1.00202
0.999637
0.997989
1.00043
1.00202
0.999562
0.997959
1.00038
1.00208
0.999754
0.99787
1.00004
1.00217
1.00025
0.99783
0.999374
1.0021
1.00107
0.998088
0.99844
1.00156
1.00204
0.999001
0.997577
1.00022
1.00259
1.00074
0.997601
0.998229
1.00173
1.00264
0.999441
0.996943
0.999001
1.00269
1.00257
0.99865
0.996444
0.9992
1.00328
1.00308
0.998623
0.995673
0.998248
1.00335
1.00459
1.00012
0.995049
0.995506
1.00142
1.00634
1.00453
0.99735
0.992156
0.994745
1.00329
1.00975
1.00742
0.997386
0.988031
0.988027
0.998853
1.01303
1.0194
1.0114
0.992264
0.973635
0.96871
0.984209
1.01583
1.04927
1.06586
1.04958
0.992486
0.896471
0.771656
0.632581
0.494028
0.367845
0.26137
0.177385
0.115078
0.0714079
0.0423979
0.0240904
0.0130969
0.00680903
0.00338194
0.00160227
0.000722409
0.000308899
0.000124625
4.70651e-05
1.64223e-05
5.17018e-06
1.39548e-06
2.77102e-07
7.86526e-09
-2.92578e-08
-1.98304e-08
-9.09275e-09
-3.35586e-09
-1.01684e-09
-2.35739e-10
-2.71387e-11
1.00937e-11
8.899e-12
4.06675e-12
1.37983e-12
3.52978e-13
5.41848e-14
-6.20263e-15
-8.8697e-15
-4.17525e-15
-1.35774e-15
-3.11467e-16
-3.2344e-17
1.28694e-17
9.63791e-18
3.6954e-18
9.71379e-19
1.47599e-19
-1.45454e-20
-2.02167e-20
-8.49567e-21
-2.3108e-21
-3.6542e-22
2.50052e-23
4.24739e-23
1.75379e-23
4.5223e-24
6.18183e-25
-8.82124e-26
-8.90117e-26
-3.23981e-26
-7.21599e-27
-6.14798e-28
2.92333e-28
1.72423e-28
5.11337e-29
8.60183e-30
-2.12427e-31
-7.2438e-31
-2.83195e-31
-6.32809e-32
-5.30435e-33
2.38277e-33
1.33015e-33
3.61371e-34
4.99242e-35
-5.42023e-36
-5.53466e-36
-1.77065e-36
-3.06096e-37
1.90132e-39
2.10677e-38
7.80084e-39
1.53635e-39
6.36226e-41
-7.55978e-41
-3.17787e-41
-6.76965e-42
-4.45405e-43
2.63688e-43
1.2191e-43
2.70194e-44
2.06593e-45
-9.193e-46
-4.45357e-46
-9.91918e-47
-7.63515e-48
3.25533e-48
1.55713e-48
3.37017e-49
2.31176e-50
-1.16788e-50
-5.2084e-51
-1.05908e-51
-5.42294e-53
4.16886e-53
1.65852e-53
3.05632e-54
7.04803e-56
-1.44615e-55
-4.986e-56
-7.97351e-57
1.65623e-58
4.77263e-58
1.3993e-58
1.82221e-59
-1.71079e-60
-1.47361e-60
-3.61215e-61
-3.38705e-62
8.24124e-63
4.19953e-63
8.39546e-64
3.88264e-65
-3.04486e-65
-1.09024e-65
-1.69344e-66
4.12121e-68
9.46715e-68
2.5365e-68
2.72555e-69
-4.37677e-70
-2.54897e-70
-5.15161e-71
-2.50498e-72
1.71612e-72
5.97119e-73
8.65269e-74
-3.61502e-75
-4.97577e-75
-1.20158e-75
-1.02262e-76
2.65313e-77
1.17952e-77
1.99513e-78
1.06148e-80
-8.55846e-80
-2.32654e-80
-2.41618e-81
3.77327e-82
2.04145e-82
3.71534e-83
9.11665e-85
-1.35252e-84
-3.88529e-85
-4.27644e-86
5.40779e-87
3.1745e-87
5.81722e-88
1.55149e-89
-2.01284e-89
-5.69571e-90
-6.01465e-91
8.21143e-92
4.47731e-92
7.75837e-93
1.12795e-94
-2.82466e-94
-7.35224e-95
-6.71267e-96
1.27031e-96
5.70276e-97
8.76269e-98
-1.16364e-99
-3.66922e-99
-8.28211e-100
-5.56009e-101
1.84897e-101
6.46353e-102
8.15502e-103
-5.30208e-104
-4.29208e-104
-7.97112e-105
-2.45826e-106
2.3843e-106
6.37378e-107
5.81716e-108
-1.00375e-108
-4.3931e-109
-6.29686e-110
1.65562e-111
2.6326e-111
5.29736e-112
2.43689e-113
-1.3366e-113
-3.81934e-114
-3.72785e-115
5.17385e-116
2.43328e-116
3.51757e-117
-7.56919e-119
-1.3753e-118
-2.71359e-119
-1.15014e-120
6.75902e-121
1.83621e-121
1.63696e-122
-2.68878e-123
-1.1176e-123
-1.46464e-124
6.26153e-126
6.15675e-126
1.08175e-126
2.36143e-128
-3.04354e-128
-7.07455e-129
-4.7454e-130
1.30739e-130
4.20959e-131
4.42371e-132
-4.41296e-133
-2.30367e-133
-3.27171e-134
6.56992e-136
1.16061e-135
2.12511e-136
6.34748e-138
-5.33627e-138
-1.2584e-138
-8.51013e-140
2.18291e-140
6.90973e-141
6.92932e-142
-7.40855e-143
-3.54545e-143
-4.67513e-144
1.56858e-145
1.70341e-145
2.82263e-146
3.74553e-148
-7.63818e-148
-1.57316e-148
-7.5862e-150
3.16322e-150
8.21931e-151
6.36173e-152
-1.1806e-152
-4.05906e-153
-4.22276e-154
3.73177e-155
1.9028e-155
2.47957e-156
-7.94624e-158
-8.47937e-158
-1.34142e-158
-8.9398e-161
3.58786e-160
6.81782e-161
2.48214e-162
-1.43527e-162
-3.29106e-163
-2.01453e-164
5.37785e-165
1.51876e-165
1.26516e-166
-1.85171e-167
-6.72824e-168
-7.00403e-169
5.61103e-170
2.86863e-170
3.5764e-171
-1.31579e-172
-1.17871e-172
-1.72074e-173
8.99832e-176
4.66946e-175
7.89439e-176
1.54474e-177
-1.78223e-177
-3.47901e-178
-1.39818e-179
6.54158e-180
1.48e-180
8.60324e-182
-2.30058e-182
-6.09874e-183
-4.53329e-184
7.70236e-185
2.4406e-185
2.18272e-186
-2.42656e-187
-9.50308e-188
-9.87413e-189
7.0326e-190
3.60567e-190
4.2588e-191
-1.78068e-192
-1.33464e-192
-1.76676e-193
3.34117e-195
4.82384e-195
7.09025e-196
-2.26521e-199
-1.70364e-197
-2.76365e-198
-4.22002e-200
5.88232e-200
1.04935e-200
3.00949e-202
-1.98644e-202
-3.89012e-203
-1.57369e-204
6.56239e-205
1.41054e-205
7.18866e-207
-2.12108e-207
-5.00991e-208
-3.02963e-209
6.70728e-210
1.74513e-210
1.20708e-211
-2.07467e-212
-5.96819e-213
-4.60665e-214
6.27496e-215
2.00573e-215
1.69739e-216
-1.85475e-217
-6.62942e-218
-6.06991e-219
5.35321e-220
2.15661e-220
2.11427e-221
-1.50694e-222
-6.90959e-223
-7.19221e-224
4.1308e-225
2.18165e-225
2.39416e-226
-1.10015e-227
-6.79231e-228
-7.81103e-229
2.83772e-230
2.0863e-230
2.50071e-231
-7.05613e-233
-6.32525e-233
-7.86423e-234
1.67942e-235
1.89372e-235
2.43133e-236
-3.78192e-238
-5.601e-238
-7.3967e-239
8.71863e-241
1.32813e-240
)
;

boundaryField
{
    sides
    {
        type            zeroGradient;
    }
    empty
    {
        type            empty;
    }
}


// ************************************************************************* //
