/*--------------------------------*- C++ -*----------------------------------*\
| =========                 |                                                 |
| \\      /  F ield         | OpenFOAM: The Open Source CFD Toolbox           |
|  \\    /   O peration     | Version:  2312                                  |
|   \\  /    A nd           | Website:  www.openfoam.com                      |
|    \\/     M anipulation  |                                                 |
\*---------------------------------------------------------------------------*/
FoamFile
{
    version     2.0;
    format      ascii;
    arch        "LSB;label=32;scalar=64";
    class       volScalarField;
    location    "1.8";
    object      T;
}
// * * * * * * * * * * * * * * * * * * * * * * * * * * * * * * * * * * * * * //

dimensions      [0 0 0 1 0 0 0];

internalField   nonuniform List<scalar> 
1000
(
5.34813e-94
-1.63842e-93
5.20289e-93
-1.65971e-92
5.28173e-92
-1.6778e-91
5.32001e-91
-1.68378e-90
5.31939e-90
-1.6774e-89
5.27966e-89
-1.65871e-88
5.20146e-88
-1.62806e-87
5.0863e-87
-1.58605e-86
4.93645e-86
-1.53353e-85
4.75494e-85
-1.47154e-84
4.5454e-84
-1.40133e-83
4.31196e-83
-1.32426e-82
4.05913e-82
-1.2418e-81
3.79164e-81
-1.15546e-80
3.51426e-80
-1.06674e-79
3.23171e-79
-9.77118e-79
2.9485e-78
-8.87959e-78
2.66882e-77
-8.00527e-77
2.39641e-76
-7.15934e-76
2.13455e-75
-6.35128e-75
1.88596e-74
-5.5888e-74
1.65278e-73
-4.87776e-73
1.43658e-72
-4.22224e-72
1.23838e-71
-3.62461e-71
1.05867e-70
-3.08569e-70
8.9749e-70
-2.6049e-69
7.54453e-69
-2.18047e-68
6.28845e-68
-1.8097e-67
5.19682e-67
-1.48913e-66
4.25784e-66
-1.21479e-65
3.45836e-65
-9.82402e-65
2.78455e-64
-7.87526e-64
2.22236e-63
-6.25752e-63
1.75802e-62
-4.92803e-62
1.37832e-61
-3.84635e-61
1.07095e-60
-2.9751e-60
8.24605e-60
-2.28034e-59
6.29153e-59
-1.73186e-58
4.75628e-58
-1.30321e-57
3.56245e-57
-9.71558e-57
2.64344e-56
-7.17541e-56
1.94311e-55
-5.24947e-55
1.41481e-54
-3.80403e-54
1.02034e-53
-2.73021e-53
7.28781e-53
-1.94062e-52
5.15494e-52
-1.36597e-51
3.6107e-51
-9.52063e-51
2.50416e-50
-6.57015e-50
1.7195e-49
-4.48885e-49
1.16889e-48
-3.03605e-48
7.86572e-48
-2.03263e-47
5.23915e-47
-1.34692e-46
3.45382e-46
-8.83338e-46
2.25329e-45
-5.73283e-45
1.4547e-44
-3.68153e-44
9.29237e-44
-2.33918e-43
5.87265e-43
-1.47039e-42
3.67159e-42
-9.14308e-42
2.27061e-41
-5.6234e-41
1.38885e-40
-3.42063e-40
8.40131e-40
-2.05764e-39
5.0254e-39
-1.22389e-38
2.97221e-38
-7.19741e-38
1.7379e-37
-4.18429e-37
1.00452e-36
-2.40452e-36
5.73889e-36
-1.36567e-35
3.24027e-35
-7.66521e-35
1.80787e-34
-4.25114e-34
9.96623e-34
-2.32936e-33
5.42771e-33
-1.26085e-32
2.9199e-32
-6.741e-32
1.55141e-31
-3.5593e-31
8.14014e-31
-1.85576e-30
4.2172e-30
-9.55286e-30
2.15695e-29
-4.85443e-29
1.08897e-28
-2.43483e-28
5.42608e-28
-1.2052e-27
2.66797e-27
-5.88629e-27
1.29429e-26
-2.83625e-26
6.19395e-26
-1.34801e-25
2.92357e-25
-6.31856e-25
1.3608e-24
-2.92037e-24
6.24503e-24
-1.33069e-23
2.82521e-23
-5.97653e-23
1.25968e-22
-2.6453e-22
5.53451e-22
-1.15363e-21
2.39563e-21
-4.956e-21
1.02138e-20
-2.09692e-20
4.2884e-20
-8.73614e-20
1.77272e-19
-3.583e-19
7.21315e-19
-1.44631e-18
2.88831e-18
-5.74458e-18
1.13786e-17
-2.24453e-17
4.40912e-17
-8.62487e-17
1.68002e-16
-3.25851e-16
6.29294e-16
-1.21005e-15
2.31658e-15
-4.41545e-15
8.37849e-15
-1.58272e-14
2.97626e-14
-5.57122e-14
1.03806e-13
-1.92517e-13
3.55363e-13
-6.52846e-13
1.19362e-12
-2.17177e-12
3.93222e-12
-7.08459e-12
1.27005e-11
-2.26536e-11
4.02011e-11
-7.09741e-11
1.24652e-10
-2.17775e-10
3.78446e-10
-6.54123e-10
1.12447e-09
-1.92237e-09
3.26817e-09
-5.52479e-09
9.28628e-09
-1.55185e-08
2.57816e-08
-4.2578e-08
6.98943e-08
-1.14036e-07
1.84907e-07
-2.97942e-07
4.77023e-07
-7.58812e-07
1.19915e-06
-1.88239e-06
2.93493e-06
-4.54453e-06
6.98765e-06
-1.06677e-05
1.6168e-05
-2.43233e-05
3.63171e-05
-5.38095e-05
7.91037e-05
-0.00011536
0.000166861
-0.000239341
0.000340376
-0.000479833
0.000670369
-0.000927958
0.0012724
-0.00172775
0.00232261
-0.00309007
0.00406733
-0.00529464
0.00681351
-0.00866394
0.0108806
-0.0134877
0.0164928
-0.01988
0.0236018
-0.027572
0.0316595
-0.0356842
0.0394174
-0.0425874
0.0448917
-0.0460171
0.0456681
-0.0436012
0.0396647
-0.0338386
0.0262689
-0.0172909
0.00743389
0.00260011
-0.0119852
0.0198504
-0.0253826
0.0279438
-0.0271858
0.0231435
-0.0162846
0.00749742
0.00199355
-0.0107849
0.0175071
-0.0210635
0.0208512
-0.0169157
0.00999656
-0.00143538
-0.00705386
0.0137207
-0.0171573
0.016636
-0.012318
0.00526407
0.00277919
-0.0097869
0.0139693
-0.0142604
0.0106408
-0.0041851
-0.00320684
0.00934285
-0.0123933
0.011471
-0.00694251
0.000344815
0.0060935
-0.0101923
0.0105785
-0.00719258
0.00133885
0.00476842
-0.00882263
0.00931096
-0.0061219
0.000613001
0.00491953
-0.0081803
0.0078451
-0.00414321
-0.00122435
0.00582636
-0.0075959
0.00578679
-0.00133521
-0.00357233
0.00654811
-0.00617642
0.00272724
0.00197109
-0.00546606
0.00596139
-0.00327397
-0.00106119
0.00462433
-0.00545006
0.00313308
0.000939251
-0.00438928
0.00524548
-0.00311862
-0.000558404
0.00339931
-0.00353286
0.000764579
0.00331481
-0.0063706
0.00686413
-0.00508674
0.00298473
-0.00286544
0.00584406
-0.0110996
0.0164757
-0.0200242
0.0213993
-0.0220823
0.0242447
-0.0290641
0.0357427
-0.0419859
0.0455995
-0.0459922
0.0444132
-0.0427323
0.0417369
-0.0403434
0.0364113
-0.0285376
0.0173697
-0.00533544
-0.00500645
0.0126139
-0.0182176
0.0230048
-0.0269594
0.0284286
-0.0254095
0.0174656
-0.00654065
-0.00412203
0.0120414
-0.0167278
0.0190653
-0.0196096
0.0176181
-0.0118851
0.00259121
0.00776688
-0.0155184
0.0181662
-0.0158413
0.0106053
-0.00446099
-0.0018513
0.0081745
-0.0134316
0.015348
-0.0121106
0.00440017
0.00444772
-0.0105998
0.0122405
-0.0101257
0.00599143
-0.000882031
-0.00474145
0.00964696
-0.0114663
0.00840607
-0.00139939
-0.00590229
0.0097225
-0.00886724
0.004926
-0.000192096
-0.00405167
0.0071686
-0.00799833
0.00523205
0.000650179
-0.00651171
0.0085974
-0.00575387
0.000337066
0.00415481
-0.00592726
0.00524006
-0.00278907
-0.00101576
0.0049797
-0.00661473
0.00408826
0.0012918
-0.00558179
0.00577489
-0.002446
-0.00146715
0.0037814
-0.00416697
0.00282385
0.000193769
-0.00374268
0.00515014
-0.00264726
-0.00201587
0.00481894
-0.00365004
0.000213522
0.0024818
-0.00321447
0.00239872
-0.000365073
-0.00238478
0.00392144
-0.00223189
-0.00170054
0.00408232
-0.00261609
-0.000801066
0.0027686
-0.00232196
0.000750957
0.000991252
-0.00246877
0.00238743
0.000124182
-0.00300444
0.00288484
0.000267382
-0.00275586
0.00213479
5.48579e-05
-0.00142159
0.00167829
-0.00115139
-0.000533859
0.00240608
-0.00189558
-0.00108782
0.00284628
-0.00111611
-0.00149789
0.0018296
-0.000525929
-0.000486643
0.0011827
-0.00143762
-2.83958e-05
0.00216303
-0.00165496
-0.00125833
0.00229551
-0.000231951
-0.00141493
0.000933699
-0.000185944
-0.000314897
0.0012972
-0.00104977
-0.00128986
0.00209888
0.000455495
-0.00211564
0.000385753
0.00113632
-0.000553149
0.000225709
-6.37089e-05
-0.0012685
0.00102497
0.00161289
-0.00168678
-0.00131267
0.00159573
0.000688998
-0.000711168
-6.96418e-05
-0.000608938
-0.000383318
0.0017927
0.000675425
-0.00229969
-0.000852284
0.00184032
0.000862441
-0.000520192
-0.000537122
-0.00113077
-0.000255327
0.00230035
0.00135039
-0.00225176
-0.0021347
0.000832012
0.0017645
0.00115059
0.000151799
-0.00214136
-0.00277043
0.000937987
0.00399561
0.00180857
-0.00199976
-0.00322406
-0.00230385
0.000539802
0.00453585
0.00479036
-0.000786168
-0.00616412
-0.00572625
-0.000925065
0.00475619
0.00870824
0.00683992
-0.00226955
-0.0119364
-0.0136386
-0.00602995
0.00669609
0.0192972
0.0244399
0.0148737
-0.00840821
-0.0347725
-0.0516769
-0.0488876
-0.0172671
0.0482532
0.143583
0.258224
0.382175
0.506679
0.621969
0.720374
0.800327
0.863578
0.910745
0.942857
0.96411
0.979019
0.988803
0.993595
0.995787
0.99799
0.999819
0.99986
0.999123
0.999551
1.00061
1.00045
0.999412
0.999427
1.00049
1.00068
0.999648
0.999227
1.00017
1.00083
1.00005
0.999158
0.999697
1.00077
1.00057
0.999401
0.999201
1.00032
1.00095
1.00006
0.999036
0.999521
1.00079
1.00087
0.9996
0.99889
0.999843
1.00108
1.00076
0.999295
0.998781
1.00001
1.0013
1.00082
0.999157
0.998556
0.999898
1.00148
1.00119
0.999305
0.998179
0.999314
1.00142
1.00193
1.00009
0.997964
0.998083
1.00049
1.00258
1.00193
0.999016
0.996849
0.997864
1.00131
1.00383
1.00273
0.998689
0.99534
0.996016
1.00061
1.00543
1.00615
1.00151
0.994641
0.990902
0.993873
1.00245
1.01118
1.01366
1.00677
0.993104
0.980013
0.97591
0.985739
1.00794
1.03425
1.05223
1.04932
1.01665
0.951401
0.857074
0.742048
0.617141
0.49311
0.378731
0.279793
0.198964
0.136282
0.0899693
0.0572741
0.0351718
0.0208403
0.0119157
0.00657349
0.00349781
0.00179423
0.000886488
0.000421348
0.000192323
8.40991e-05
3.51108e-05
1.39262e-05
5.20874e-06
1.81522e-06
5.77008e-07
1.60059e-07
3.42578e-08
2.51516e-09
-2.70012e-09
-2.11193e-09
-1.0498e-09
-4.21321e-10
-1.42773e-10
-4.00443e-11
-8.21645e-12
-4.15406e-13
6.94525e-13
4.69569e-13
2.04086e-13
6.91429e-14
1.82534e-14
3.1145e-15
-1.68644e-16
-4.29096e-16
-2.25715e-16
-8.20789e-17
-2.23904e-17
-3.96183e-18
1.00737e-19
4.52276e-19
2.33327e-19
7.99619e-20
1.95564e-20
2.53884e-21
-5.49772e-22
-5.2446e-22
-2.16936e-22
-6.13984e-23
-1.09373e-23
1.43802e-25
1.063e-24
5.10847e-25
1.551e-25
3.01506e-26
9.37656e-28
-2.17205e-27
-1.11268e-27
-3.39111e-28
-6.44489e-29
-1.43871e-30
4.71713e-30
2.28365e-30
6.52958e-31
1.09279e-31
-3.72833e-33
-1.04489e-32
-4.34089e-33
-1.08711e-33
-1.35166e-34
2.59821e-35
2.17176e-35
7.34113e-36
1.47869e-36
7.12724e-38
-8.1302e-38
-3.9456e-38
-1.04205e-38
-1.40995e-39
1.8254e-40
1.77498e-40
5.9137e-41
1.12088e-41
2.94397e-43
-6.77095e-43
-2.90511e-43
-6.76872e-44
-6.45569e-45
2.1504e-45
1.28165e-45
3.49962e-46
4.79492e-47
-5.21608e-48
-5.20422e-48
-1.62728e-48
-2.69589e-49
5.89728e-51
1.98475e-50
6.99357e-51
1.30251e-51
2.95221e-53
-7.24684e-53
-2.82757e-53
-5.669e-54
-2.67771e-55
2.58158e-55
1.08853e-55
2.27415e-56
1.35586e-57
-9.12482e-58
-4.02163e-58
-8.51032e-59
-5.36356e-60
3.23586e-60
1.43192e-60
2.98775e-61
1.755e-62
-1.15365e-62
-4.91792e-63
-9.85036e-64
-4.62602e-65
4.10607e-65
1.62596e-65
3.04e-66
8.16265e-68
-1.44047e-67
-5.15199e-68
-8.71172e-69
3.53349e-71
4.91069e-70
1.55435e-70
2.28269e-71
-1.17961e-72
-1.60584e-72
-4.42697e-73
-5.30664e-74
6.97393e-75
4.98173e-75
1.17684e-75
1.01999e-76
-3.00886e-77
-1.45181e-77
-2.87267e-78
-1.25314e-79
1.09322e-79
3.93549e-80
6.26662e-81
-1.15105e-82
-3.49716e-82
-9.80492e-83
-1.15514e-83
1.46591e-84
1.00129e-84
2.20602e-85
1.5192e-86
-6.3538e-87
-2.57486e-87
-4.34382e-88
-6.73541e-91
2.06334e-89
5.91018e-90
6.96797e-91
-8.26667e-92
-5.61349e-92
-1.18823e-92
-7.01148e-94
3.57486e-94
1.31802e-94
1.99879e-95
-5.43615e-97
-1.06423e-96
-2.66743e-97
-2.45073e-98
5.3917e-99
2.56508e-99
4.51247e-100
6.94471e-102
-1.82077e-101
-5.17696e-102
-5.76412e-103
7.4405e-104
4.49309e-104
8.61168e-105
3.13481e-106
-2.90367e-106
-8.93714e-107
-1.08099e-107
1.01536e-108
7.23101e-109
1.43397e-109
6.29934e-111
-4.42334e-111
-1.39397e-111
-1.70081e-112
1.4859e-113
1.0812e-113
2.11284e-114
8.61819e-116
-6.50349e-116
-1.97687e-116
-2.27676e-117
2.36288e-118
1.50468e-118
2.76203e-119
7.6078e-121
-9.17034e-121
-2.54527e-121
-2.5674e-122
3.81981e-123
1.93673e-123
3.18026e-124
8.81057e-127
-1.21789e-125
-2.95055e-126
-2.33326e-127
5.81925e-128
2.2775e-128
3.16267e-129
-1.22375e-130
-1.49007e-130
-3.03247e-131
-1.46995e-132
7.97772e-133
2.40673e-133
2.60221e-134
-2.94122e-135
-1.64383e-135
-2.69316e-136
-1.19281e-138
9.61771e-138
2.23717e-138
1.57989e-139
-4.54988e-140
-1.60155e-140
-1.96944e-141
1.33413e-142
1.00577e-142
1.77312e-143
3.71971e-145
-5.47015e-145
-1.34558e-145
-1.04781e-146
2.41971e-147
8.9999e-148
1.13044e-148
-6.59274e-150
-5.36433e-150
-9.403e-151
-1.92391e-152
2.81622e-152
6.74559e-153
4.9187e-154
-1.2398e-154
-4.32839e-155
-5.06222e-156
3.80195e-157
2.51136e-157
4.05579e-158
1.93983e-160
-1.31017e-159
-2.82415e-160
-1.59615e-161
5.97584e-162
1.77446e-162
1.74019e-163
-2.18282e-164
-1.02025e-164
-1.40233e-165
4.10356e-167
5.37525e-167
9.72259e-168
2.66851e-169
-2.56674e-169
-6.08693e-170
-4.21797e-171
1.07486e-171
3.51062e-172
3.70208e-173
-3.57737e-174
-1.87973e-174
-2.65193e-175
5.51664e-177
9.34114e-177
1.68932e-177
4.70837e-179
-4.26973e-179
-9.88912e-180
-6.43584e-181
1.75252e-181
5.40067e-182
5.26106e-183
-6.06288e-184
-2.77016e-184
-3.56531e-185
1.39146e-186
1.33631e-186
2.16714e-187
2.02548e-189
-6.03971e-189
-1.21915e-189
-5.5299e-191
2.52974e-191
6.44503e-192
4.85986e-193
-9.57626e-194
-3.22721e-194
-3.32028e-195
3.07519e-196
1.53633e-196
1.9993e-197
-6.62537e-199
-6.95798e-199
-1.10858e-199
-8.32682e-202
2.99085e-201
5.77714e-202
2.24405e-203
-1.22671e-203
-2.21642e-204
)
;

boundaryField
{
    sides
    {
        type            zeroGradient;
    }
    empty
    {
        type            empty;
    }
}


// ************************************************************************* //
