/*--------------------------------*- C++ -*----------------------------------*\
| =========                 |                                                 |
| \\      /  F ield         | OpenFOAM: The Open Source CFD Toolbox           |
|  \\    /   O peration     | Version:  2312                                  |
|   \\  /    A nd           | Website:  www.openfoam.com                      |
|    \\/     M anipulation  |                                                 |
\*---------------------------------------------------------------------------*/
FoamFile
{
    version     2.0;
    format      ascii;
    arch        "LSB;label=32;scalar=64";
    class       volScalarField;
    location    "2.9";
    object      T;
}
// * * * * * * * * * * * * * * * * * * * * * * * * * * * * * * * * * * * * * //

dimensions      [0 0 0 1 0 0 0];

internalField   nonuniform List<scalar> 
1000
(
0
0
0
0
0
0
0
0
0
0
0
0
0
0
0
0
0
0
0
0
0
0
0
0
0
0
0
0
0
0
0
0
0
0
0
0
0
0
0
0
0
0
0
0
0
0
0
0
0
0
0
0
0
0
0
0
0
0
0
0
0
0
0
0
0
0
0
0
0
0
0
0
0
0
0
0
0
0
0
0
0
0
0
0
0
0
0
0
0
0
0
0
0
0
0
0
0
0
0
0
0
0
0
0
0
0
0
0
0
0
0
0
0
0
0
0
0
0
0
0
0
0
0
0
0
0
0
0
0
0
0
0
0
0
0
0
0
0
0
0
0
0
0
0
0
0
0
0
0
0
0
0
0
0
0
0
0
0
0
0
0
0
0
0
0
0
0
0
0
0
0
0
0
0
0
0
0
0
0
0
0
0
0
0
0
0
0
0
0
0
0
0
0
0
0
0
0
0
0
0
0
0
0
0
0
0
0
0
0
0
0
0
0
0
0
0
0
0
0
0
0
0
0
0
0
0
0
0
0
0
0
0
0
0
0
0
0
0
0
0
0
0
0
0
0
0
0
0
0
0
0
0
0
0
0
0
0
0
0
0
0
0
0
0
0
0
0
0
0
0
0
0
0
0
0
0
0
0
0
0
0
0
0
0
0
0
0
0
0
0
0
0
0
0
0
0
0
0
0
0
0
0
0
0
0
0
0
0
0
0
0
0
0
0
0
0
0
0
0
0
0
0
0
0
0
0
0
0
0
0
0
0
0
0
0
0
0
0
0
0
0
0
0
0
0
0
0
0
0
0
0
0
0
0
0
0
0
0
0
0
0
0
0
0
0
0
0
0
0
0
0
0
0
0
0
0
0
0
0
0
0
0
0
0
0
0
0
0
0
0
0
0
0
0
0
0
0
0
0
0
0
0
0
0
7.67889e-114
-5.15481e-98
3.09742e-90
-1.79937e-86
-1.6072e-84
-4.39918e-83
1.31278e-81
1.69312e-79
8.34837e-78
2.82548e-76
7.47768e-75
1.64083e-73
3.08864e-72
5.10154e-71
7.51508e-70
9.9958e-69
1.21215e-67
1.3506e-66
1.39156e-65
1.33285e-64
1.19201e-63
9.9911e-63
7.87274e-62
5.84699e-61
4.10141e-60
2.72158e-59
1.71028e-58
1.01837e-57
5.74459e-57
3.06652e-56
1.54519e-55
7.31514e-55
3.22548e-54
1.30273e-53
4.6494e-53
1.32921e-52
1.82241e-52
-1.22217e-51
-1.46689e-50
-1.03735e-49
-6.07716e-49
-3.19872e-48
-1.56308e-47
-7.21053e-47
-3.17081e-46
-1.33752e-45
-5.43505e-45
-2.13407e-44
-8.11515e-44
-2.99386e-43
-1.07305e-42
-3.74084e-42
-1.26976e-41
-4.20028e-41
-1.35528e-40
-4.26935e-40
-1.31425e-39
-3.95736e-39
-1.16679e-38
-3.37223e-38
-9.56468e-38
-2.66531e-37
-7.305e-37
-1.97109e-36
-5.24019e-36
-1.37329e-35
-3.54843e-35
-9.03866e-35
-2.26855e-34
-5.60552e-34
-1.36222e-33
-3.2517e-33
-7.61441e-33
-1.74687e-32
-3.92165e-32
-8.60669e-32
-1.8454e-31
-3.86528e-31
-7.91399e-31
-1.58669e-30
-3.12526e-30
-6.07875e-30
-1.17601e-29
-2.28279e-29
-4.48476e-29
-8.97044e-29
-1.82808e-28
-3.77523e-28
-7.82121e-28
-1.6056e-27
-3.22542e-27
-6.26393e-27
-1.16141e-26
-2.02483e-26
-3.24331e-26
-4.56111e-26
-4.96843e-26
-1.78739e-26
1.08811e-25
4.44068e-25
1.18113e-24
2.60258e-24
5.03194e-24
8.63991e-24
1.29536e-23
1.58461e-23
1.17504e-23
-1.10534e-23
-7.37805e-23
-2.09722e-22
-4.62505e-22
-8.72829e-22
-1.44132e-21
-2.04929e-21
-2.31569e-21
-1.37342e-21
2.42711e-21
1.18182e-20
3.07329e-20
6.38628e-20
1.15017e-19
1.83355e-19
2.5641e-19
2.99012e-19
2.383e-19
-5.26482e-20
-7.65418e-19
-2.14693e-18
-4.44663e-18
-7.78684e-18
-1.19184e-17
-1.58342e-17
-1.72617e-17
-1.20346e-17
6.66291e-18
4.87988e-17
1.26858e-16
2.52788e-16
4.25707e-16
6.14581e-16
7.36206e-16
4.66712e-16
-1.48033e-15
-5.2768e-15
-7.40577e-15
1.37183e-16
1.92995e-14
2.74309e-14
-3.98513e-15
-6.62348e-14
-7.00502e-14
4.6009e-14
1.98114e-13
1.44499e-13
-2.23314e-13
-5.50886e-13
-2.26524e-13
8.19439e-13
1.41712e-12
1.90072e-13
-2.58422e-12
-3.49197e-12
4.1292e-13
7.56898e-12
8.52913e-12
-2.81053e-12
-2.08763e-11
-2.12648e-11
9.48553e-12
5.56746e-11
5.55286e-11
-2.57438e-11
-1.45162e-10
-1.49073e-10
4.8099e-11
3.66906e-10
4.23871e-10
-3.59029e-11
-8.79733e-10
-1.21315e-09
-2.40818e-10
1.9447e-09
3.37544e-09
1.65666e-09
-3.71562e-09
-8.87831e-09
-7.03032e-09
4.87893e-09
2.14131e-08
2.4343e-08
2.4746e-09
-4.16973e-08
-7.28753e-08
-4.76639e-08
5.23422e-08
1.78729e-07
2.02643e-07
4.4394e-08
-2.98586e-07
-6.01337e-07
-5.29176e-07
1.08219e-07
1.17214e-06
1.89512e-06
1.41055e-06
-7.29698e-07
-3.93e-06
-5.94604e-06
-4.37202e-06
2.04646e-06
1.18626e-05
1.8919e-05
1.60916e-05
-9.26968e-07
-3.07329e-05
-5.9834e-05
-6.3018e-05
-2.80836e-05
5.31924e-05
0.000159485
0.000232564
0.0002082
4.4597e-05
-0.00026635
-0.000648886
-0.000914024
-0.000854907
-0.000339363
0.000720383
0.00218634
0.00362341
0.00426388
0.00355943
0.00099369
-0.00375634
-0.0104274
-0.0178911
-0.024095
-0.025833
-0.0216365
-0.00891654
0.0148649
0.0514058
0.101326
0.164027
0.237722
0.319633
0.406324
0.494099
0.579399
0.659153
0.731016
0.79349
0.845932
0.888447
0.921736
0.946898
0.965244
0.978127
0.986824
0.99245
0.995923
0.997957
0.999075
0.999642
0.9999
0.999991
1
1
1
1
1
1
1
1
1
1
1
1
1
1
1
1
1
1
1
1
1
1
1
1
1
1
1
1
1
1
1
1
1
1
1
0.999999
0.999998
0.999999
1
1
1.00001
1
0.999998
0.999988
0.999981
0.999984
1
1.00003
1.00006
1.00006
1.00003
0.999947
0.999841
0.999768
0.999792
0.999956
1.00027
1.00065
1.00091
1.00085
1.00034
0.999279
0.997814
0.996376
0.995738
0.996446
0.999011
1.00376
1.01044
1.0179
1.02409
1.02582
1.02161
1.00887
0.985075
0.948518
0.898582
0.835869
0.762167
0.680252
0.593562
0.505794
0.420503
0.340761
0.268912
0.206451
0.154022
0.111518
0.0782387
0.0530837
0.0347441
0.0218652
0.0131717
0.00754761
0.00407539
0.00204258
0.000925021
0.00035758
0.000100239
8.90166e-06
1.5132e-16
1.48775e-16
1.46568e-16
1.42174e-16
1.36027e-16
1.28553e-16
1.20134e-16
1.11111e-16
1.0178e-16
9.23948e-17
8.3162e-17
7.42479e-17
6.57791e-17
5.78467e-17
5.05109e-17
4.38049e-17
3.77396e-17
3.23076e-17
2.74877e-17
2.32477e-17
1.95484e-17
1.6346e-17
1.35941e-17
1.1246e-17
9.25606e-18
7.58052e-18
6.17845e-18
5.01224e-18
4.04775e-18
3.25451e-18
2.60557e-18
2.07739e-18
1.64962e-18
1.30482e-18
1.02817e-18
8.07188e-19
6.31419e-19
4.92193e-19
3.82352e-19
2.96032e-19
2.28449e-19
1.7573e-19
1.34752e-19
1.0301e-19
7.85054e-20
5.96505e-20
4.51898e-20
3.41343e-20
2.57087e-20
1.9307e-20
1.4458e-20
1.0796e-20
8.03875e-21
5.96881e-21
4.41941e-21
3.26303e-21
2.40248e-21
1.76393e-21
1.29147e-21
9.42921e-22
6.86512e-22
4.98431e-22
3.60865e-22
2.60535e-22
1.87572e-22
1.34664e-22
9.64082e-23
6.88264e-23
4.89975e-23
3.47832e-23
2.4623e-23
1.73816e-23
1.22353e-23
8.58842e-24
6.01157e-24
4.19603e-24
2.92054e-24
2.02705e-24
1.40295e-24
9.68276e-25
6.66396e-25
4.57346e-25
3.12995e-25
2.13604e-25
1.45367e-25
9.86523e-26
6.67626e-26
4.50554e-26
3.03215e-26
2.03491e-26
1.36186e-26
9.089e-27
6.04919e-27
4.01494e-27
2.65744e-27
1.7541e-27
1.15465e-27
7.57981e-28
4.96226e-28
3.23979e-28
2.10947e-28
1.36978e-28
8.8706e-29
5.72906e-29
3.69015e-29
2.37049e-29
1.51869e-29
9.7038e-30
6.18382e-30
3.93023e-30
2.49131e-30
1.57504e-30
9.93138e-31
6.24579e-31
3.91767e-31
2.45094e-31
1.52935e-31
9.51815e-32
5.90845e-32
3.65824e-32
2.25919e-32
1.39161e-32
8.55009e-33
5.2398e-33
3.20296e-33
1.95293e-33
1.18774e-33
7.20544e-34
4.36019e-34
2.63184e-34
1.58462e-34
9.51717e-35
5.70175e-35
3.40746e-35
2.03131e-35
1.20796e-35
7.16564e-36
4.24026e-36
2.50303e-36
1.47393e-36
8.65829e-37
5.07377e-37
2.96604e-37
1.72971e-37
1.00629e-37
5.84018e-38
3.38135e-38
1.95305e-38
1.12539e-38
6.46929e-39
3.71005e-39
2.12264e-39
1.21156e-39
6.8991e-40
3.91939e-40
2.2214e-40
1.25609e-40
7.08601e-41
3.98816e-41
2.23942e-41
1.25457e-41
7.01211e-42
3.91024e-42
2.17551e-42
1.2076e-42
6.68796e-43
3.6955e-43
2.03735e-43
1.12065e-43
6.15027e-44
3.36773e-44
1.83993e-44
1.00298e-44
5.45514e-45
2.9604e-45
1.60297e-45
8.66035e-46
4.66853e-46
2.5111e-46
1.34769e-46
7.21699e-47
3.85628e-47
2.05603e-47
1.0938e-47
5.80634e-48
3.07552e-48
1.62552e-48
8.57286e-49
4.51149e-49
2.36907e-49
1.24137e-49
6.49073e-50
3.38654e-50
1.76315e-50
9.16009e-51
4.74883e-51
2.4567e-51
1.26823e-51
6.53326e-52
3.35851e-52
1.72287e-52
8.81955e-53
4.50541e-53
2.29676e-53
1.16841e-53
5.93161e-54
3.00505e-54
1.51926e-54
7.66515e-55
3.85936e-55
1.93919e-55
9.7238e-56
4.86594e-56
2.43004e-56
1.21109e-56
6.02367e-57
2.98998e-57
1.48115e-57
7.32247e-58
3.6128e-58
1.77894e-58
8.742e-59
4.28741e-59
2.09854e-59
1.02513e-59
4.9978e-60
2.43177e-60
1.1809e-60
5.72333e-61
)
;

boundaryField
{
    sides
    {
        type            zeroGradient;
    }
    empty
    {
        type            empty;
    }
}


// ************************************************************************* //
