/*--------------------------------*- C++ -*----------------------------------*\
| =========                 |                                                 |
| \\      /  F ield         | OpenFOAM: The Open Source CFD Toolbox           |
|  \\    /   O peration     | Version:  2312                                  |
|   \\  /    A nd           | Website:  www.openfoam.com                      |
|    \\/     M anipulation  |                                                 |
\*---------------------------------------------------------------------------*/
FoamFile
{
    version     2.0;
    format      ascii;
    arch        "LSB;label=32;scalar=64";
    class       volScalarField;
    location    "4.3";
    object      T;
}
// * * * * * * * * * * * * * * * * * * * * * * * * * * * * * * * * * * * * * //

dimensions      [0 0 0 1 0 0 0];

internalField   nonuniform List<scalar> 
1000
(
1.26598e-06
1.26802e-06
1.27364e-06
1.28285e-06
1.29567e-06
1.31213e-06
1.33228e-06
1.35615e-06
1.38381e-06
1.41532e-06
1.45076e-06
1.4902e-06
1.53375e-06
1.58149e-06
1.63355e-06
1.69005e-06
1.75111e-06
1.81689e-06
1.88752e-06
1.96318e-06
2.04403e-06
2.13027e-06
2.22209e-06
2.31971e-06
2.42333e-06
2.53321e-06
2.64958e-06
2.77271e-06
2.90288e-06
3.04037e-06
3.1855e-06
3.33858e-06
3.49996e-06
3.66998e-06
3.84902e-06
4.03748e-06
4.23576e-06
4.44428e-06
4.66351e-06
4.89391e-06
5.13597e-06
5.39021e-06
5.65717e-06
5.9374e-06
6.2315e-06
6.54007e-06
6.86377e-06
7.20325e-06
7.55922e-06
7.9324e-06
8.32356e-06
8.73348e-06
9.16299e-06
9.61296e-06
1.00843e-05
1.05779e-05
1.10948e-05
1.16359e-05
1.22024e-05
1.27953e-05
1.34158e-05
1.40651e-05
1.47444e-05
1.54549e-05
1.61982e-05
1.69755e-05
1.77883e-05
1.86381e-05
1.95265e-05
2.04552e-05
2.14258e-05
2.244e-05
2.34998e-05
2.46071e-05
2.57638e-05
2.69719e-05
2.82337e-05
2.95513e-05
3.09271e-05
3.23634e-05
3.38627e-05
3.54276e-05
3.70608e-05
3.87651e-05
4.05433e-05
4.23984e-05
4.43336e-05
4.6352e-05
4.84569e-05
5.06519e-05
5.29405e-05
5.53264e-05
5.78135e-05
6.04057e-05
6.31072e-05
6.59222e-05
6.88552e-05
7.19107e-05
7.50936e-05
7.84087e-05
8.18611e-05
8.54561e-05
8.91991e-05
9.30958e-05
9.7152e-05
0.000101374
0.000105767
0.000110339
0.000115095
0.000120044
0.000125191
0.000130545
0.000136112
0.000141901
0.000147921
0.000154178
0.000160683
0.000167443
0.000174468
0.000181769
0.000189353
0.000197233
0.000205418
0.000213918
0.000222746
0.000231913
0.00024143
0.000251311
0.000261566
0.00027221
0.000283256
0.000294718
0.00030661
0.000318946
0.000331743
0.000345014
0.000358777
0.000373048
0.000387844
0.000403182
0.00041908
0.000435558
0.000452634
0.000470327
0.000488658
0.000507647
0.000527317
0.000547688
0.000568784
0.000590627
0.000613242
0.000636653
0.000660884
0.000685963
0.000711914
0.000738767
0.000766547
0.000795286
0.00082501
0.000855752
0.000887542
0.000920412
0.000954394
0.000989522
0.00102583
0.00106335
0.00110213
0.00114219
0.00118358
0.00122634
0.0012705
0.00131611
0.0013632
0.00141182
0.00146202
0.00151384
0.00156732
0.00162251
0.00167947
0.00173823
0.00179885
0.00186138
0.00192587
0.00199238
0.00206096
0.00213167
0.00220456
0.0022797
0.00235714
0.00243694
0.00251916
0.00260388
0.00269115
0.00278104
0.00287363
0.00296896
0.00306713
0.00316819
0.00327223
0.00337932
0.00348952
0.00360293
0.00371962
0.00383966
0.00396315
0.00409017
0.00422079
0.00435511
0.00449321
0.00463519
0.00478113
0.00493113
0.00508527
0.00524367
0.00540641
0.00557359
0.00574532
0.00592169
0.00610281
0.00628879
0.00647972
0.00667573
0.00687691
0.00708339
0.00729527
0.00751268
0.00773572
0.00796451
0.00819918
0.00843984
0.00868663
0.00893965
0.00919905
0.00946494
0.00973746
0.0100167
0.0103029
0.0105961
0.0108965
0.0112041
0.0115192
0.0118418
0.0121722
0.0125105
0.0128567
0.0132111
0.0135737
0.0139449
0.0143246
0.014713
0.0151104
0.0155168
0.0159324
0.0163574
0.0167918
0.017236
0.01769
0.018154
0.0186281
0.0191125
0.0196074
0.020113
0.0206293
0.0211566
0.0216951
0.0222448
0.0228061
0.0233789
0.0239635
0.0245601
0.0251689
0.0257899
0.0264234
0.0270695
0.0277285
0.0284004
0.0290854
0.0297838
0.0304956
0.0312211
0.0319604
0.0327136
0.033481
0.0342627
0.0350589
0.0358697
0.0366953
0.0375359
0.0383916
0.0392625
0.0401489
0.0410509
0.0419686
0.0429022
0.0438518
0.0448176
0.0457998
0.0467985
0.0478138
0.0488459
0.0498948
0.0509609
0.0520441
0.0531446
0.0542625
0.055398
0.0565512
0.0577222
0.0589111
0.060118
0.0613431
0.0625864
0.0638481
0.0651282
0.0664268
0.0677441
0.06908
0.0704348
0.0718084
0.0732009
0.0746124
0.0760431
0.0774928
0.0789617
0.0804498
0.0819572
0.0834839
0.0850299
0.0865952
0.08818
0.0897841
0.0914076
0.0930505
0.0947128
0.0963945
0.0980955
0.0998159
0.101556
0.103314
0.105093
0.10689
0.108706
0.110542
0.112396
0.11427
0.116162
0.118073
0.120003
0.121951
0.123917
0.125902
0.127904
0.129925
0.131964
0.13402
0.136094
0.138185
0.140294
0.142419
0.144561
0.14672
0.148895
0.151086
0.153293
0.155516
0.157754
0.160008
0.162276
0.164559
0.166856
0.169167
0.171493
0.173831
0.176183
0.178547
0.180924
0.183313
0.185714
0.188126
0.19055
0.192984
0.195428
0.197882
0.200346
0.202819
0.205301
0.20779
0.210288
0.212793
0.215306
0.217824
0.220349
0.222879
0.225415
0.227955
0.230499
0.233047
0.235598
0.238152
0.240707
0.243265
0.245823
0.248382
0.250942
0.2535
0.256058
0.258614
0.261167
0.263718
0.266266
0.26881
0.271349
0.273884
0.276412
0.278935
0.28145
0.283959
0.286459
0.288951
0.291433
0.293906
0.296369
0.29882
0.30126
0.303687
0.306102
0.308503
0.31089
0.313263
0.31562
0.317961
0.320286
0.322594
0.324884
0.327155
0.329408
0.331641
0.333854
0.336046
0.338217
0.340366
0.342492
0.344595
0.346674
0.348729
0.35076
0.352764
0.354743
0.356695
0.35862
0.360518
0.362387
0.364227
0.366038
0.367819
0.36957
0.371289
0.372978
0.374634
0.376259
0.37785
0.379408
0.380932
0.382422
0.383878
0.385298
0.386682
0.388031
0.389343
0.390618
0.391857
0.393057
0.39422
0.395345
0.39643
0.397477
0.398485
0.399453
0.400381
0.401269
0.402116
0.402923
0.403689
0.404414
0.405097
0.405738
0.406338
0.406895
0.407411
0.407884
0.408314
0.408702
0.409047
0.409349
0.409608
0.409824
0.409997
0.410127
0.410214
0.410257
0.410257
0.410214
0.410127
0.409997
0.409824
0.409608
0.409349
0.409047
0.408702
0.408314
0.407884
0.407411
0.406895
0.406338
0.405738
0.405097
0.404414
0.403689
0.402923
0.402116
0.401269
0.400381
0.399453
0.398485
0.397477
0.39643
0.395345
0.39422
0.393057
0.391857
0.390618
0.389343
0.388031
0.386682
0.385298
0.383878
0.382422
0.380932
0.379408
0.37785
0.376259
0.374634
0.372978
0.371289
0.36957
0.367819
0.366038
0.364227
0.362387
0.360518
0.35862
0.356695
0.354743
0.352764
0.35076
0.348729
0.346674
0.344595
0.342492
0.340366
0.338217
0.336046
0.333854
0.331641
0.329408
0.327155
0.324884
0.322594
0.320286
0.317961
0.31562
0.313263
0.31089
0.308503
0.306102
0.303687
0.30126
0.29882
0.296369
0.293906
0.291433
0.288951
0.286459
0.283959
0.28145
0.278935
0.276412
0.273884
0.271349
0.26881
0.266266
0.263718
0.261167
0.258614
0.256058
0.2535
0.250942
0.248382
0.245823
0.243265
0.240707
0.238152
0.235598
0.233047
0.230499
0.227955
0.225415
0.222879
0.220349
0.217824
0.215306
0.212793
0.210288
0.20779
0.205301
0.202819
0.200346
0.197882
0.195428
0.192984
0.19055
0.188126
0.185714
0.183313
0.180924
0.178547
0.176183
0.173831
0.171493
0.169167
0.166856
0.164559
0.162276
0.160008
0.157754
0.155516
0.153293
0.151086
0.148895
0.14672
0.144561
0.142419
0.140294
0.138185
0.136094
0.13402
0.131964
0.129925
0.127904
0.125902
0.123917
0.121951
0.120003
0.118073
0.116162
0.11427
0.112396
0.110542
0.108706
0.10689
0.105093
0.103314
0.101556
0.0998159
0.0980955
0.0963945
0.0947128
0.0930505
0.0914076
0.0897841
0.08818
0.0865952
0.0850299
0.0834839
0.0819572
0.0804498
0.0789617
0.0774928
0.0760431
0.0746124
0.0732009
0.0718084
0.0704348
0.06908
0.0677441
0.0664268
0.0651282
0.0638481
0.0625864
0.0613431
0.060118
0.0589111
0.0577222
0.0565512
0.055398
0.0542625
0.0531446
0.0520441
0.0509609
0.0498948
0.0488459
0.0478138
0.0467985
0.0457998
0.0448176
0.0438518
0.0429022
0.0419686
0.0410509
0.0401489
0.0392625
0.0383916
0.0375359
0.0366953
0.0358697
0.0350589
0.0342627
0.033481
0.0327136
0.0319604
0.0312211
0.0304956
0.0297838
0.0290854
0.0284004
0.0277285
0.0270695
0.0264234
0.0257899
0.0251689
0.0245601
0.0239635
0.0233789
0.0228061
0.0222448
0.0216951
0.0211566
0.0206293
0.020113
0.0196074
0.0191125
0.0186281
0.018154
0.01769
0.017236
0.0167918
0.0163574
0.0159324
0.0155168
0.0151104
0.014713
0.0143246
0.0139449
0.0135737
0.0132111
0.0128567
0.0125105
0.0121722
0.0118418
0.0115192
0.0112041
0.0108965
0.0105961
0.0103029
0.0100167
0.00973746
0.00946494
0.00919905
0.00893965
0.00868663
0.00843984
0.00819918
0.00796451
0.00773572
0.00751268
0.00729527
0.00708339
0.00687691
0.00667573
0.00647972
0.00628879
0.00610281
0.00592169
0.00574532
0.00557359
0.00540641
0.00524367
0.00508527
0.00493113
0.00478113
0.00463519
0.00449321
0.00435511
0.00422079
0.00409017
0.00396315
0.00383966
0.00371962
0.00360293
0.00348952
0.00337932
0.00327223
0.00316819
0.00306713
0.00296896
0.00287363
0.00278104
0.00269115
0.00260388
0.00251916
0.00243694
0.00235714
0.0022797
0.00220456
0.00213167
0.00206096
0.00199238
0.00192587
0.00186138
0.00179885
0.00173823
0.00167947
0.00162251
0.00156732
0.00151384
0.00146202
0.00141182
0.0013632
0.00131611
0.0012705
0.00122634
0.00118358
0.00114219
0.00110213
0.00106335
0.00102583
0.000989522
0.000954394
0.000920412
0.000887542
0.000855752
0.00082501
0.000795286
0.000766547
0.000738767
0.000711914
0.000685963
0.000660884
0.000636653
0.000613242
0.000590627
0.000568784
0.000547688
0.000527317
0.000507647
0.000488658
0.000470327
0.000452634
0.000435558
0.00041908
0.000403182
0.000387844
0.000373048
0.000358777
0.000345014
0.000331743
0.000318946
0.00030661
0.000294718
0.000283256
0.00027221
0.000261566
0.000251311
0.00024143
0.000231913
0.000222746
0.000213918
0.000205418
0.000197233
0.000189353
0.000181769
0.000174468
0.000167443
0.000160683
0.000154178
0.000147921
0.000141901
0.000136112
0.000130545
0.000125191
0.000120044
0.000115095
0.000110339
0.000105767
0.000101374
9.7152e-05
9.30958e-05
8.91991e-05
8.54561e-05
8.18611e-05
7.84087e-05
7.50936e-05
7.19107e-05
6.88552e-05
6.59222e-05
6.31072e-05
6.04057e-05
5.78135e-05
5.53264e-05
5.29405e-05
5.06519e-05
4.84569e-05
4.6352e-05
4.43336e-05
4.23984e-05
4.05433e-05
3.87651e-05
3.70608e-05
3.54276e-05
3.38627e-05
3.23634e-05
3.09271e-05
2.95513e-05
2.82337e-05
2.69719e-05
2.57638e-05
2.46071e-05
2.34998e-05
2.244e-05
2.14258e-05
2.04552e-05
1.95265e-05
1.86381e-05
1.77883e-05
1.69755e-05
1.61982e-05
1.54549e-05
1.47444e-05
1.40651e-05
1.34158e-05
1.27953e-05
1.22024e-05
1.16359e-05
1.10948e-05
1.05779e-05
1.00843e-05
9.61296e-06
9.16299e-06
8.73348e-06
8.32356e-06
7.9324e-06
7.55922e-06
7.20325e-06
6.86377e-06
6.54007e-06
6.2315e-06
5.9374e-06
5.65717e-06
5.39021e-06
5.13597e-06
4.89391e-06
4.66351e-06
4.44428e-06
4.23576e-06
4.03748e-06
3.84902e-06
3.66998e-06
3.49996e-06
3.33858e-06
3.1855e-06
3.04037e-06
2.90288e-06
2.77271e-06
2.64958e-06
2.53321e-06
2.42333e-06
2.31971e-06
2.22209e-06
2.13027e-06
2.04403e-06
1.96318e-06
1.88752e-06
1.81689e-06
1.75111e-06
1.69005e-06
1.63355e-06
1.58149e-06
1.53375e-06
1.4902e-06
1.45076e-06
1.41532e-06
1.38381e-06
1.35615e-06
1.33228e-06
1.31213e-06
1.29567e-06
1.28285e-06
1.27364e-06
1.26802e-06
1.26598e-06
)
;

boundaryField
{
    sides
    {
        type            zeroGradient;
    }
    empty
    {
        type            empty;
    }
}


// ************************************************************************* //
