/*--------------------------------*- C++ -*----------------------------------*\
| =========                 |                                                 |
| \\      /  F ield         | OpenFOAM: The Open Source CFD Toolbox           |
|  \\    /   O peration     | Version:  2312                                  |
|   \\  /    A nd           | Website:  www.openfoam.com                      |
|    \\/     M anipulation  |                                                 |
\*---------------------------------------------------------------------------*/
FoamFile
{
    version     2.0;
    format      ascii;
    arch        "LSB;label=32;scalar=64";
    class       volScalarField;
    location    "3.8";
    object      T;
}
// * * * * * * * * * * * * * * * * * * * * * * * * * * * * * * * * * * * * * //

dimensions      [0 0 0 1 0 0 0];

internalField   nonuniform List<scalar> 
1000
(
0
0
0
0
0
0
0
0
0
0
0
0
0
0
0
0
0
0
0
0
0
0
0
0
0
0
0
0
0
0
0
0
0
0
0
0
0
0
0
0
0
0
0
0
0
0
0
0
0
0
0
0
0
0
0
0
0
0
0
0
0
0
0
0
0
0
0
0
0
0
0
0
0
0
0
0
0
0
0
0
0
0
0
0
0
0
0
0
0
0
0
0
0
0
0
0
0
0
0
0
0
0
0
0
0
0
0
0
0
0
0
0
0
0
0
0
0
0
0
0
0
0
0
0
0
0
0
0
0
0
0
0
0
0
0
0
0
0
0
0
0
0
0
0
0
0
0
0
0
0
0
0
0
0
0
0
0
0
0
0
0
0
0
0
0
0
0
0
0
0
0
0
0
0
0
0
0
0
0
0
0
0
0
0
0
0
0
0
0
0
0
0
0
0
0
0
0
0
0
0
0
0
0
0
0
0
0
0
0
0
0
0
0
0
0
0
0
0
0
0
0
0
0
0
0
0
0
0
0
0
0
0
0
0
0
0
0
0
0
0
0
0
0
0
0
0
0
0
0
0
0
0
0
0
0
0
0
0
0
0
0
0
0
0
0
0
0
0
0
0
0
0
0
0
0
0
0
0
0
0
0
0
0
0
0
0
0
0
0
0
0
0
0
0
0
0
0
0
0
0
0
0
0
0
0
0
0
0
0
0
0
0
0
0
0
0
0
0
0
0
0
0
0
0
0
0
0
0
0
0
0
0
0
0
0
0
0
0
0
0
0
0
0
0
0
0
0
0
0
0
0
0
0
0
0
0
0
0
0
0
0
0
0
0
0
0
0
0
0
0
0
0
0
0
0
0
0
0
0
0
0
0
0
0
0
0
0
0
0
0
0
0
0
0
0
0
0
0
0
0
0
0
0
0
1.53244e-139
-1.02872e-123
6.18138e-116
-3.55553e-112
-5.25389e-110
-3.30255e-108
-8.79983e-107
2.26853e-105
3.59221e-103
2.09708e-101
8.57388e-100
2.79163e-98
7.64917e-97
1.81986e-95
3.83755e-94
7.27892e-93
1.25585e-91
1.98842e-90
2.91006e-89
3.96022e-88
5.03678e-87
6.01288e-86
6.76297e-85
7.19012e-84
7.24651e-83
6.94092e-82
6.33257e-81
5.51426e-80
4.59105e-79
3.66051e-78
2.79889e-77
2.05485e-76
1.45006e-75
9.84472e-75
6.43504e-74
4.05206e-73
2.45889e-72
1.43814e-71
8.10578e-71
4.40048e-70
2.29866e-69
1.15336e-68
5.54301e-68
2.53998e-67
1.10128e-66
4.4571e-66
1.63917e-65
5.13612e-65
1.08495e-64
-1.30668e-64
-3.50508e-63
-2.86763e-62
-1.82564e-61
-1.02818e-60
-5.35626e-60
-2.63575e-59
-1.23953e-58
-5.61107e-58
-2.45673e-57
-1.04391e-56
-4.31565e-56
-1.73916e-55
-6.84223e-55
-2.63119e-54
-9.90018e-54
-3.6479e-53
-1.31727e-52
-4.66467e-52
-1.62084e-51
-5.52927e-51
-1.85277e-50
-6.10111e-50
-1.97529e-49
-6.29041e-49
-1.97127e-48
-6.0816e-48
-1.84791e-47
-5.53242e-47
-1.63268e-46
-4.7513e-46
-1.364e-45
-3.86423e-45
-1.0807e-44
-2.98444e-44
-8.14055e-44
-2.19364e-43
-5.8407e-43
-1.53674e-42
-3.99569e-42
-1.02669e-41
-2.60692e-41
-6.5406e-41
-1.62129e-40
-3.97006e-40
-9.60219e-40
-2.29362e-39
-5.41004e-39
-1.26001e-38
-2.89752e-38
-6.57924e-38
-1.47526e-37
-3.26731e-37
-7.14957e-37
-1.54639e-36
-3.30788e-36
-7.00256e-36
-1.46818e-35
-3.05128e-35
-6.29149e-35
-1.28813e-34
-2.62073e-34
-5.30115e-34
-1.06638e-33
-2.13303e-33
-4.24027e-33
-8.36934e-33
-1.63795e-32
-3.173e-32
-6.07165e-32
-1.14494e-31
-2.12196e-31
-3.85338e-31
-6.8319e-31
-1.17741e-30
-1.96117e-30
-3.13189e-30
-4.73596e-30
-6.63625e-30
-8.23902e-30
-7.98889e-30
-2.52473e-30
1.45787e-29
5.44015e-29
1.341e-28
2.76743e-28
5.06449e-28
8.32814e-28
1.21444e-27
1.48623e-27
1.23107e-27
-4.2121e-28
-5.06509e-27
-1.53006e-26
-3.48337e-26
-6.79512e-26
-1.17475e-25
-1.79593e-25
-2.32933e-25
-2.17995e-25
-1.81772e-27
6.77659e-25
2.29128e-24
5.61955e-24
1.18565e-23
2.26696e-23
4.01187e-23
6.62662e-23
1.02212e-22
1.46185e-22
1.90251e-22
2.15233e-22
1.83745e-22
3.19908e-23
-3.37487e-22
-1.0573e-21
-2.2821e-21
-4.14655e-21
-6.67341e-21
-9.60499e-21
-1.21281e-20
-1.24694e-20
-7.36103e-21
8.57197e-21
4.33585e-20
1.0787e-19
2.15155e-19
3.78152e-19
6.04766e-19
8.89051e-19
1.19731e-18
1.4484e-18
1.48876e-18
1.06483e-18
-2.00843e-19
-2.81732e-18
-7.39705e-18
-1.45623e-17
-2.47475e-17
-3.78558e-17
-5.27398e-17
-6.65286e-17
-7.39383e-17
-6.65271e-17
-3.09826e-17
5.30441e-17
2.15424e-16
4.95817e-16
9.19152e-16
1.45132e-15
1.93735e-15
1.95834e-15
-9.24004e-16
-8.01771e-15
-1.41603e-14
-9.84898e-15
1.58776e-14
4.62512e-14
4.07967e-14
-3.02384e-14
-1.28504e-13
-1.25666e-13
5.89783e-14
3.42066e-13
3.59677e-13
-9.70579e-14
-8.63229e-13
-1.03053e-12
5.58518e-14
2.09145e-12
2.89379e-12
5.26316e-13
-4.71204e-12
-7.96002e-12
-3.57943e-12
9.47205e-12
2.11146e-11
1.50831e-11
-1.52918e-11
-5.22919e-11
-5.2325e-11
8.47938e-12
1.13939e-10
1.62555e-10
6.1269e-11
-1.98581e-10
-4.34814e-10
-3.55249e-10
1.92775e-10
9.83474e-10
1.26013e-09
4.04055e-10
-1.61209e-09
-3.4993e-09
-3.0804e-09
8.13551e-10
7.14902e-09
1.07789e-08
6.57487e-09
-7.54158e-09
-2.56713e-08
-3.16734e-08
-1.30614e-08
3.2875e-08
8.48959e-08
9.31631e-08
2.90274e-08
-1.12781e-07
-2.67128e-07
-2.87905e-07
-9.8979e-08
3.23336e-07
8.05608e-07
9.42119e-07
4.75455e-07
-7.21861e-07
-2.27483e-06
-3.13808e-06
-2.32861e-06
6.85843e-07
5.51049e-06
9.94119e-06
1.01746e-05
4.41328e-06
-8.69361e-06
-2.58483e-05
-3.76988e-05
-3.42777e-05
-9.20004e-06
3.94833e-05
0.000100507
0.000143781
0.000135969
5.60026e-05
-0.000109342
-0.00033715
-0.000550963
-0.000623363
-0.000474639
-2.64778e-05
0.000746487
0.00173528
0.00266897
0.00308023
0.0026535
0.00106783
-0.00195106
-0.00635793
-0.0116924
-0.0169083
-0.0202636
-0.0199714
-0.0149836
-0.0032721
0.0169246
0.0469095
0.0873444
0.138142
0.198436
0.266649
0.340636
0.417889
0.495771
0.57175
0.643598
0.709537
0.768323
0.819269
0.862207
0.897407
0.925477
0.947245
0.963655
0.975672
0.984213
0.990095
0.994014
0.996533
0.998089
0.999009
0.999525
0.999797
0.999929
0.999984
1
1
1
1
1
1
1
1
1
1
1
1
1
1
1
1
1
1
1
1
1
1
1
1
1
1
1
1
0.999999
0.999999
1
1
1
1
1
0.999999
0.999994
0.99999
0.99999
0.999996
1.00001
1.00003
1.00004
1.00003
1.00001
0.99996
0.9999
0.999856
0.999864
0.999944
1.00011
1.00034
1.00055
1.00062
1.00047
1.00003
0.999252
0.998263
0.997331
0.996921
0.99735
0.998938
1.00196
1.00637
1.0117
1.01691
1.02026
1.01996
1.01496
1.00324
0.983026
0.953028
0.91258
0.861772
0.801469
0.73325
0.659262
0.582011
0.504133
0.428161
0.356322
0.290394
0.231618
0.180682
0.137754
0.102563
0.0745007
0.0527387
0.0363334
0.0243196
0.0157817
0.0099014
0.00598399
0.00346607
0.00191017
0.000990523
0.000474435
0.000202685
7.11955e-05
1.55354e-05
2.85386e-07
8.33244e-17
8.25505e-17
8.11518e-17
7.88149e-17
7.5738e-17
7.20859e-17
6.80096e-17
6.3645e-17
5.91117e-17
5.4513e-17
4.9936e-17
4.54529e-17
4.11215e-17
3.69867e-17
3.30819e-17
2.94299e-17
2.60445e-17
2.29321e-17
2.00925e-17
1.75205e-17
1.52065e-17
1.31382e-17
1.13007e-17
9.67808e-18
8.25316e-18
7.00871e-18
5.92759e-18
4.99315e-18
4.18947e-18
3.50158e-18
2.91554e-18
2.41853e-18
1.9989e-18
1.64613e-18
1.35083e-18
1.10464e-18
9.00223e-19
7.31166e-19
5.91891e-19
4.77584e-19
3.84116e-19
3.07966e-19
2.46145e-19
1.96133e-19
1.55811e-19
1.23412e-19
9.74644e-20
7.67506e-20
6.02676e-20
4.7192e-20
3.68514e-20
2.86983e-20
2.22889e-20
1.72651e-20
1.33386e-20
1.02784e-20
7.89996e-21
6.05656e-21
4.63167e-21
3.53322e-21
2.68866e-21
2.04099e-21
1.5456e-21
1.16765e-21
8.80022e-22
6.6168e-22
4.96344e-22
3.71453e-22
2.77342e-22
2.06597e-22
1.53545e-22
1.13855e-22
8.42324e-23
6.21754e-23
4.57904e-23
3.36473e-23
2.46687e-23
1.80454e-23
1.31709e-23
9.59156e-24
6.96938e-24
5.05277e-24
3.65509e-24
2.63815e-24
1.89992e-24
1.36524e-24
9.7885e-25
7.00265e-25
4.99858e-25
3.56016e-25
2.53007e-25
1.79406e-25
1.26935e-25
8.96121e-26
6.31241e-26
4.43678e-26
3.1116e-26
2.17743e-26
1.52037e-26
1.05926e-26
7.36376e-27
5.10795e-27
3.53543e-27
2.44167e-27
1.68261e-27
1.15699e-27
7.93832e-28
5.43478e-28
3.7127e-28
2.53078e-28
1.72137e-28
1.1683e-28
7.91214e-29
5.3468e-29
3.60542e-29
2.42595e-29
1.62882e-29
1.09127e-29
7.29551e-30
4.86688e-30
3.23979e-30
2.15206e-30
1.42649e-30
9.43532e-31
6.22763e-31
4.10174e-31
2.69584e-31
1.76808e-31
1.15716e-31
7.55742e-32
4.92539e-32
3.20329e-32
2.07895e-32
1.34643e-32
8.70204e-33
5.61247e-33
3.61232e-33
2.32016e-33
1.48714e-33
9.51244e-34
6.07208e-34
3.86804e-34
2.45898e-34
1.56002e-34
9.87689e-35
6.24059e-35
3.93504e-35
2.47624e-35
1.55509e-35
9.74641e-36
6.09619e-36
3.80539e-36
2.37066e-36
1.47391e-36
9.14546e-37
5.66337e-37
3.50011e-37
2.15887e-37
1.32897e-37
8.16474e-38
5.00629e-38
3.06363e-38
)
;

boundaryField
{
    sides
    {
        type            zeroGradient;
    }
    empty
    {
        type            empty;
    }
}


// ************************************************************************* //
