/*--------------------------------*- C++ -*----------------------------------*\
| =========                 |                                                 |
| \\      /  F ield         | OpenFOAM: The Open Source CFD Toolbox           |
|  \\    /   O peration     | Version:  2312                                  |
|   \\  /    A nd           | Website:  www.openfoam.com                      |
|    \\/     M anipulation  |                                                 |
\*---------------------------------------------------------------------------*/
FoamFile
{
    version     2.0;
    format      ascii;
    arch        "LSB;label=32;scalar=64";
    class       volScalarField;
    location    "3.5";
    object      T;
}
// * * * * * * * * * * * * * * * * * * * * * * * * * * * * * * * * * * * * * //

dimensions      [0 0 0 1 0 0 0];

internalField   nonuniform List<scalar> 
1000
(
0
0
0
0
0
0
0
0
0
0
0
0
0
0
0
0
0
0
0
0
0
0
0
0
0
0
0
0
0
0
0
0
0
0
0
0
0
0
0
0
0
0
0
0
0
0
0
0
0
0
0
0
0
0
0
0
0
0
0
0
0
0
0
0
0
0
0
0
0
0
0
0
0
0
0
0
0
0
0
0
0
0
0
0
0
0
0
0
0
0
0
0
0
0
0
0
0
0
0
0
0
0
0
0
0
0
0
0
0
0
0
0
0
0
0
0
0
0
0
0
0
0
0
0
0
0
0
0
0
0
0
0
0
0
0
0
0
0
0
0
0
0
0
0
0
0
0
0
0
0
0
0
0
0
0
0
0
0
0
0
0
0
0
0
0
0
0
0
0
0
0
0
0
0
0
0
0
0
0
0
0
0
0
0
0
0
0
0
0
0
0
0
0
0
0
0
0
0
0
0
0
0
0
0
0
0
0
0
0
0
0
0
0
0
0
0
0
0
0
0
0
0
0
0
0
0
0
0
0
0
0
0
0
0
0
0
0
0
0
0
0
0
0
0
0
0
0
0
0
0
0
0
0
0
0
0
0
0
0
0
0
0
0
0
0
0
0
0
0
0
0
0
0
0
0
0
0
0
0
0
0
0
0
0
0
0
0
0
0
0
0
0
0
0
0
0
0
0
0
0
0
0
0
0
0
0
0
0
0
0
0
0
0
0
0
0
0
0
0
0
0
0
0
0
0
0
0
0
0
0
0
0
0
0
0
0
0
0
0
0
0
0
0
0
0
0
0
0
0
0
0
0
0
0
0
0
0
0
0
0
0
0
0
0
0
0
0
0
0
0
0
0
0
0
0
0
0
0
0
0
0
0
0
0
0
0
0
0
0
0
0
0
0
0
0
0
0
0
0
0
0
0
0
0
5.64966e-131
-3.79259e-115
2.27889e-107
-1.31517e-103
-1.68629e-101
-8.71605e-100
-1.25655e-98
1.25608e-96
1.11871e-94
5.38595e-93
1.91436e-91
5.51468e-90
1.34754e-88
2.87125e-87
5.43604e-86
9.27202e-85
1.44001e-83
2.05374e-82
2.70849e-81
3.32221e-80
3.80865e-79
4.0981e-78
4.15368e-77
3.97826e-76
3.6104e-75
3.11221e-74
2.55358e-73
1.99803e-72
1.4932e-71
1.06733e-70
7.30533e-70
4.79234e-69
3.0152e-68
1.82023e-67
1.05443e-66
5.85942e-66
3.12076e-65
1.59048e-64
7.73471e-64
3.57248e-63
1.55462e-62
6.28188e-62
2.28849e-61
6.98347e-61
1.33021e-60
-3.09405e-60
-5.61724e-59
-4.36153e-58
-2.70324e-57
-1.49161e-56
-7.62688e-56
-3.68449e-55
-1.70022e-54
-7.54581e-54
-3.23583e-53
-1.34514e-52
-5.43391e-52
-2.13714e-51
-8.19546e-51
-3.06804e-50
-1.12236e-49
-4.01574e-49
-1.40634e-48
-4.82395e-48
-1.62172e-47
-5.34651e-47
-1.72954e-46
-5.4929e-46
-1.71365e-45
-5.25447e-45
-1.5844e-44
-4.70073e-44
-1.37299e-43
-3.95003e-43
-1.11991e-42
-3.13057e-42
-8.6318e-42
-2.34841e-41
-6.30619e-41
-1.67174e-40
-4.37552e-40
-1.13073e-39
-2.8849e-39
-7.26577e-39
-1.80601e-38
-4.42929e-38
-1.07152e-37
-2.55616e-37
-6.01147e-37
-1.39341e-36
-3.18283e-36
-7.16406e-36
-1.5891e-35
-3.4745e-35
-7.49158e-35
-1.59399e-34
-3.34985e-34
-6.96156e-34
-1.43265e-33
-2.92424e-33
-5.92981e-33
-1.19642e-32
-2.40469e-32
-4.81782e-32
-9.62095e-32
-1.91318e-31
-3.78175e-31
-7.41186e-31
-1.43577e-30
-2.73883e-30
-5.12347e-30
-9.35471e-30
-1.65781e-29
-2.83141e-29
-4.61469e-29
-7.06715e-29
-9.88793e-29
-1.18617e-28
-9.81046e-29
3.19137e-29
4.05161e-28
1.2542e-27
2.94081e-27
5.94976e-27
1.07737e-26
1.75499e-26
2.52151e-26
2.98281e-26
2.16397e-26
-1.94281e-26
-1.29707e-25
-3.67503e-25
-8.13949e-25
-1.55862e-24
-2.65008e-24
-3.97763e-24
-5.03304e-24
-4.48423e-24
5.12085e-25
1.53029e-23
4.89799e-23
1.15585e-22
2.34563e-22
4.29049e-22
7.19548e-22
1.10933e-21
1.55667e-21
1.92867e-21
1.93312e-21
1.03082e-21
-1.65603e-21
-7.39964e-21
-1.78088e-20
-3.45258e-20
-5.84836e-20
-8.84665e-20
-1.18698e-19
-1.35246e-19
-1.11269e-19
-1.66096e-21
2.61455e-19
7.69483e-19
1.62955e-18
2.94103e-18
4.7471e-18
6.95111e-18
9.18999e-18
1.06655e-17
9.9458e-18
4.74394e-18
-8.26061e-18
-3.34243e-17
-7.56934e-17
-1.39247e-16
-2.24423e-16
-3.22784e-16
-4.1113e-16
-4.5085e-16
-3.65837e-16
1.38079e-16
1.73943e-15
4.40242e-15
6.31257e-15
2.43615e-15
-1.22819e-14
-2.62611e-14
-1.69628e-14
3.11703e-14
7.93694e-14
5.1575e-14
-8.68637e-14
-2.19426e-13
-1.35196e-13
2.41214e-13
5.85036e-13
3.54658e-13
-6.29571e-13
-1.5439e-12
-9.81586e-13
1.51348e-12
4.01969e-12
2.97049e-12
-3.34015e-12
-1.05159e-11
-8.99898e-12
6.2263e-12
2.67747e-11
2.70413e-11
-7.13526e-12
-6.35097e-11
-8.05373e-11
-1.08707e-11
1.36052e-10
2.28114e-10
1.12421e-10
-2.41118e-10
-5.89727e-10
-4.9971e-10
2.51705e-10
1.3552e-09
1.68828e-09
3.95558e-10
-2.45205e-09
-4.80019e-09
-3.6478e-09
2.39261e-09
1.09971e-08
1.39975e-08
5.09651e-09
-1.66206e-08
-3.84221e-08
-3.7069e-08
6.16735e-10
6.9401e-08
1.21992e-07
9.79527e-08
-3.50358e-08
-2.43202e-07
-3.78792e-07
-2.78164e-07
1.38416e-07
7.70684e-07
1.18288e-06
9.15696e-07
-2.89118e-07
-2.20743e-06
-3.72119e-06
-3.37705e-06
-3.0484e-07
5.35172e-06
1.12463e-05
1.26515e-05
6.77628e-06
-8.18927e-06
-2.88716e-05
-4.41819e-05
-4.11648e-05
-1.17134e-05
4.68136e-05
0.000119695
0.000168533
0.000153469
4.84921e-05
-0.000157833
-0.000429314
-0.000661423
-0.000693698
-0.000452057
0.000163536
0.0011389
0.00229158
0.00322493
0.00334912
0.0024259
1.15179e-05
-0.00406634
-0.00953035
-0.0155493
-0.0205384
-0.0221434
-0.0191745
-0.00970258
0.00839815
0.0367433
0.0762527
0.127002
0.188173
0.258107
0.334478
0.414519
0.495306
0.574028
0.648226
0.715963
0.775919
0.827408
0.870326
0.905055
0.932334
0.953126
0.968494
0.979499
0.987123
0.992222
0.995507
0.997537
0.998735
0.999403
0.999751
0.999917
0.999985
1
1
1
1
1
1
1
1
1
1
1
1
1
1
1
1
1
1
1
1
1
1
1
1
1
1
1
1
1
1
0.999999
0.999999
0.999999
1
1
1
1
1
0.999995
0.999989
0.999987
0.999993
1.00001
1.00003
1.00004
1.00004
1.00001
0.999953
0.99988
0.999832
0.999847
0.999952
1.00016
1.00043
1.00066
1.00069
1.00045
0.999835
0.99886
0.997708
0.99677
0.996657
0.997579
0.999996
1.00408
1.00954
1.01555
1.02054
1.02213
1.01915
1.00967
0.991554
0.963194
0.923671
0.872909
0.81173
0.741789
0.665416
0.585377
0.504595
0.425881
0.351692
0.283966
0.224022
0.172544
0.129636
0.0949159
0.0676445
0.0468586
0.0314952
0.020494
0.0128729
0.00777495
0.00449108
0.00246165
0.00126487
0.000596849
0.000248461
8.26786e-05
1.50115e-05
1.0196e-16
9.96785e-17
9.88052e-17
9.67386e-17
9.35758e-17
8.95242e-17
8.47946e-17
7.95801e-17
7.4053e-17
6.83638e-17
6.26412e-17
5.69927e-17
5.15055e-17
4.6248e-17
4.12717e-17
3.66127e-17
3.2294e-17
2.83272e-17
2.47144e-17
2.14501e-17
1.85226e-17
1.59156e-17
1.36098e-17
1.15832e-17
9.81316e-18
8.27624e-18
6.94935e-18
5.81008e-18
4.83712e-18
4.01047e-18
3.31165e-18
2.72375e-18
2.23152e-18
1.82128e-18
1.4809e-18
1.19973e-18
9.68448e-19
7.78998e-19
6.24441e-19
4.9885e-19
3.97191e-19
3.15215e-19
2.49355e-19
1.96633e-19
1.54577e-19
1.21146e-19
9.46611e-20
7.37481e-20
5.72885e-20
4.43753e-20
3.4276e-20
2.64016e-20
2.02805e-20
1.55364e-20
1.18702e-20
9.04516e-21
6.87443e-21
5.21112e-21
3.94012e-21
2.97153e-21
2.23539e-21
1.6774e-21
1.25555e-21
9.37471e-22
6.98248e-22
5.18794e-22
3.8452e-22
2.84305e-22
2.09699e-22
1.54297e-22
1.13258e-22
8.29347e-23
6.05841e-23
4.41508e-23
3.20979e-23
2.32796e-23
1.68437e-23
1.21579e-23
8.75479e-24
6.2892e-24
4.50722e-24
3.22246e-24
2.29843e-24
1.63547e-24
1.16096e-24
8.22169e-25
5.8086e-25
4.09401e-25
2.87869e-25
2.01934e-25
1.41317e-25
9.86618e-26
6.87186e-26
4.77497e-26
3.31008e-26
2.28918e-26
1.57942e-26
1.08714e-26
7.46541e-27
5.11443e-27
3.49558e-27
2.38353e-27
1.62145e-27
1.10044e-27
7.451e-28
5.03323e-28
3.39208e-28
2.28072e-28
1.52992e-28
1.0239e-28
6.83652e-29
4.55418e-29
3.02678e-29
2.00701e-29
1.32775e-29
8.7637e-30
5.77114e-30
3.79176e-30
2.48558e-30
1.62564e-30
1.0608e-30
6.90646e-31
4.48635e-31
2.9077e-31
1.88029e-31
1.21317e-31
7.80989e-32
5.01641e-32
3.21492e-32
2.05579e-32
1.31165e-32
8.35018e-33
5.30407e-33
3.36173e-33
2.12597e-33
1.34152e-33
8.44662e-34
5.30662e-34
3.32662e-34
2.08085e-34
1.29878e-34
8.08885e-35
5.02688e-35
3.11725e-35
1.9289e-35
1.19101e-35
7.33816e-36
4.51161e-36
2.76789e-36
1.6945e-36
1.03517e-36
6.31048e-37
3.83879e-37
2.33029e-37
1.41161e-37
8.53306e-38
5.14738e-38
3.09857e-38
1.86136e-38
1.11583e-38
6.67518e-39
3.98501e-39
2.37411e-39
1.41148e-39
8.3745e-40
4.95851e-40
2.92992e-40
1.72772e-40
1.01673e-40
5.97114e-41
3.49968e-41
2.04701e-41
1.19491e-41
6.96109e-42
4.04712e-42
2.34825e-42
1.3598e-42
7.85847e-43
4.53249e-43
2.60899e-43
1.49881e-43
8.59337e-44
4.91725e-44
2.80819e-44
1.60058e-44
)
;

boundaryField
{
    sides
    {
        type            zeroGradient;
    }
    empty
    {
        type            empty;
    }
}


// ************************************************************************* //
