/*--------------------------------*- C++ -*----------------------------------*\
| =========                 |                                                 |
| \\      /  F ield         | OpenFOAM: The Open Source CFD Toolbox           |
|  \\    /   O peration     | Version:  2312                                  |
|   \\  /    A nd           | Website:  www.openfoam.com                      |
|    \\/     M anipulation  |                                                 |
\*---------------------------------------------------------------------------*/
FoamFile
{
    version     2.0;
    format      ascii;
    arch        "LSB;label=32;scalar=64";
    class       volScalarField;
    location    "0.7";
    object      T;
}
// * * * * * * * * * * * * * * * * * * * * * * * * * * * * * * * * * * * * * //

dimensions      [0 0 0 1 0 0 0];

internalField   nonuniform List<scalar> 
1000
(
0
0
0
0
0
0
0
0
0
0
0
0
0
0
0
0
0
0
0
0
0
0
0
0
0
0
0
0
0
0
0
0
0
0
0
0
0
0
0
0
0
0
0
0
0
0
0
0
0
0
0
0
0
0
0
0
0
0
0
0
0
0
0
0
0
0
0
0
0
0
0
0
0
0
0
0
0
0
0
0
0
0
0
0
0
0
0
0
0
0
0
0
0
0
0
0
0
0
0
0
0
0
0
0
0
0
0
0
0
0
0
0
0
0
0
0
0
0
0
0
0
0
0
0
0
0
0
0
0
0
0
0
0
0
0
0
0
0
0
0
0
0
0
0
0
0
0
0
0
0
0
0
0
0
0
0
0
0
0
0
0
0
0
0
0
0
0
0
0
0
0
0
0
-4.94066e-324
2.96439e-323
-4.94066e-324
2.96439e-323
-4.94066e-324
2.96439e-323
-4.94066e-324
2.96439e-323
-4.94066e-324
2.96439e-323
-4.94066e-324
2.96439e-323
-4.94066e-324
2.96439e-323
-4.94066e-324
2.96439e-323
-4.94066e-324
2.96439e-323
-4.94066e-324
2.96439e-323
-2.96439e-323
6.27463e-322
-7.88529e-321
1.01535e-319
-1.30606e-318
1.68027e-317
-2.16167e-316
2.781e-315
-3.57777e-314
4.60281e-313
-5.92154e-312
7.61808e-311
-9.8007e-310
1.26086e-308
-1.62211e-307
2.08685e-306
-2.68474e-305
3.45393e-304
-4.44349e-303
5.71657e-302
-7.35439e-301
9.46146e-300
-1.21722e-298
1.56596e-297
-2.01461e-296
2.59181e-295
-3.33437e-294
4.28969e-293
-5.5187e-292
7.09983e-291
-9.13396e-290
1.17509e-288
-1.51176e-287
1.94488e-286
-2.5021e-285
3.21896e-284
-4.1412e-283
5.32768e-282
-6.85408e-281
8.8178e-280
-1.13441e-278
1.45943e-277
-1.87756e-276
2.41549e-275
-3.10754e-274
3.99786e-273
-5.14327e-272
6.61683e-271
-8.51258e-270
1.09515e-268
-1.40891e-267
1.81257e-266
-2.33188e-265
2.99997e-264
-3.85948e-263
4.96524e-262
-6.3878e-261
8.21793e-260
-1.05724e-258
1.36014e-257
-1.74983e-256
2.25117e-255
-2.89613e-254
3.72589e-253
-4.79337e-252
6.16669e-251
-7.93348e-250
1.02065e-248
-1.31306e-247
1.68926e-246
-2.17324e-245
2.79589e-244
-3.59692e-243
4.62746e-242
-5.95324e-241
7.65887e-240
-9.85317e-239
1.26761e-237
-1.63079e-236
2.09802e-235
-2.69911e-234
3.47242e-233
-4.46728e-232
5.74718e-231
-7.39377e-230
9.51212e-229
-1.22374e-227
1.57434e-226
-2.0254e-225
2.60569e-224
-3.35223e-223
4.31265e-222
-5.54825e-221
7.13784e-220
-9.18287e-219
1.18138e-217
-1.51985e-216
1.95529e-215
-2.51549e-214
3.23619e-213
-4.16338e-212
5.3562e-211
-6.89078e-210
8.86501e-209
-1.14049e-207
1.46724e-206
-1.88761e-205
2.42842e-204
-3.12418e-203
4.01927e-202
-5.1708e-201
6.65226e-200
-8.55816e-199
1.10101e-197
-1.41646e-196
1.82228e-195
-2.34437e-194
3.01604e-193
-3.88014e-192
4.99182e-191
-6.422e-190
8.26193e-189
-1.0629e-187
1.36743e-186
-1.7592e-185
2.26322e-184
-2.91164e-183
3.74584e-182
-4.81904e-181
6.19971e-180
-7.97596e-179
1.02611e-177
-1.3201e-176
1.69831e-175
-2.18488e-174
2.81086e-173
-3.61618e-172
4.65223e-171
-5.98512e-170
7.69988e-169
-9.90593e-168
1.2744e-166
-1.63952e-165
2.10925e-164
-2.71356e-163
3.49101e-162
-4.4912e-161
5.77795e-160
-7.43336e-159
9.56304e-158
-1.23029e-156
1.58277e-155
-2.03624e-154
2.61964e-153
-3.37017e-152
4.33574e-151
-5.57795e-150
7.17606e-149
-9.23203e-148
1.1877e-146
-1.52799e-145
1.96576e-144
-2.52896e-143
3.25352e-142
-4.18567e-141
5.38488e-140
-6.92767e-139
8.91248e-138
-1.14659e-136
1.4751e-135
-1.89772e-134
2.44142e-133
-3.1409e-132
4.04079e-131
-5.19849e-130
6.68788e-129
-8.60398e-128
1.10691e-126
-1.42404e-125
1.83203e-124
-2.35692e-123
3.03219e-122
-3.90092e-121
5.01855e-120
-6.45639e-119
8.30617e-118
-1.06859e-116
1.37475e-115
-1.76862e-114
2.27534e-113
-2.92723e-112
3.76589e-111
-4.84484e-110
6.23291e-109
-8.01866e-108
1.0316e-106
-1.32716e-105
1.7074e-104
-2.19658e-103
2.82591e-102
-3.63554e-101
4.67714e-100
-6.01716e-99
7.7411e-98
-9.95896e-97
1.28123e-95
-1.6483e-94
2.12055e-93
-2.72809e-92
3.5097e-91
-4.51525e-90
5.80889e-89
-7.47316e-88
9.61425e-87
-1.23688e-85
1.59125e-84
-2.04715e-83
2.63366e-82
-3.38822e-81
4.35896e-80
-5.60782e-79
7.21448e-78
-9.28146e-77
1.19406e-75
-1.53617e-74
1.97629e-73
-2.5425e-72
3.27094e-71
-4.20808e-70
5.41371e-69
-6.96476e-68
8.9602e-67
-1.15273e-65
1.483e-64
-1.90788e-63
2.4545e-62
-3.15772e-61
4.06242e-60
-5.22632e-59
6.72369e-58
-8.65005e-57
1.11283e-55
-1.43166e-54
1.84184e-53
-2.36954e-52
3.04842e-51
-3.92181e-50
5.04542e-49
-6.49095e-48
8.35064e-47
-1.07431e-45
1.38211e-44
-1.77809e-43
2.28752e-42
-2.9429e-41
3.78606e-40
-8.01709e-39
-7.5948e-37
-5.66979e-37
7.4099e-35
4.09807e-33
1.60839e-31
4.98618e-30
1.27401e-28
2.75943e-27
5.17105e-26
8.51554e-25
1.24746e-23
1.64171e-22
1.95674e-21
2.12649e-20
2.11918e-19
1.94607e-18
1.65371e-17
1.30514e-16
9.59702e-16
6.59346e-15
4.24288e-14
2.56287e-13
1.45597e-12
7.79263e-12
3.93533e-11
1.87772e-10
8.47514e-10
3.62231e-09
1.46738e-08
5.63841e-08
2.05647e-07
7.1233e-07
2.34439e-06
7.33361e-06
2.18099e-05
6.16732e-05
0.000165831
0.000423972
0.00103047
0.00238033
0.0052237
0.0108852
0.021525
0.0403619
0.0717049
0.120574
0.191702
0.287867
0.407848
0.544725
0.685577
0.81344
0.91173
0.97073
0.994487
0.99956
0.999989
1
1
1
1
1
1
1
1
1
1
1
1
1
1
1
1
1
1
1
1
1
1
1
1
1
1
1
1
1
1
1
1
1
1
1
1
1
1
1
1
1
1
1
1
1
1
1
1
1
1
1
1
1
1
1
1
1
1
1
1
1
1
1
1
1
1
1
1
1
1
1
1
1
1
0.999999
0.999998
0.999993
0.999978
0.999938
0.999834
0.999575
0.998967
0.997614
0.994765
0.989094
0.978438
0.959578
0.928203
0.879295
0.808126
0.711925
0.591922
0.455047
0.314222
0.186408
0.0881777
0.0292298
0.00550222
0.000439188
1.06678e-05
5.76067e-08
5.32308e-11
6.97507e-15
5.77543e-19
4.86339e-23
4.14402e-27
3.55081e-31
3.04466e-35
2.60504e-39
2.22159e-43
1.88844e-47
1.60112e-51
1.35525e-55
1.14621e-59
9.69291e-64
8.19923e-68
6.93914e-72
5.87568e-76
4.9772e-80
4.21719e-84
3.5736e-88
3.02817e-92
2.56574e-96
2.17362e-100
1.84116e-104
1.55935e-108
1.32053e-112
1.1182e-116
9.46811e-121
8.01659e-125
6.78736e-129
5.74644e-133
4.86501e-137
4.11865e-141
3.48666e-145
2.95154e-149
2.49844e-153
2.1148e-157
1.79e-161
1.51502e-165
1.28222e-169
1.08515e-173
9.18322e-178
7.77108e-182
6.5758e-186
5.5641e-190
4.70783e-194
3.98314e-198
3.36984e-202
2.85083e-206
2.41164e-210
2.04001e-214
1.72556e-218
1.45951e-222
1.23442e-226
1.04399e-230
8.82898e-235
7.46625e-239
6.31355e-243
5.33856e-247
4.51391e-251
3.81646e-255
3.22661e-259
2.7278e-263
2.30598e-267
1.94929e-271
1.6477e-275
1.3927e-279
1.1771e-283
9.94826e-288
8.40736e-292
7.10477e-296
6.00368e-300
5.07298e-304
4.28634e-308
3.62149e-312
3.0596e-316
2.58298e-320
0
0
0
0
0
0
0
0
0
0
0
0
0
0
0
0
0
0
0
0
0
0
0
0
0
0
0
0
0
0
0
0
0
0
0
0
0
0
0
0
0
0
0
0
0
0
0
0
0
0
0
0
0
0
0
0
0
0
0
0
0
0
0
0
0
0
0
0
0
0
0
0
0
0
0
0
0
0
0
0
0
0
0
0
0
0
0
0
0
0
0
0
0
0
0
0
0
0
0
0
0
0
0
0
0
0
0
0
0
0
0
0
0
0
0
0
0
0
0
0
0
0
0
0
0
0
0
0
0
0
0
0
0
0
0
0
0
0
0
0
0
0
0
0
0
0
0
0
0
0
0
0
0
0
0
0
0
0
0
0
0
0
0
0
0
0
0
0
0
0
0
0
0
0
0
0
0
0
0
0
0
0
0
0
0
0
0
0
0
0
0
0
0
0
0
0
0
0
0
0
0
0
0
0
0
0
0
0
0
0
0
0
0
0
0
0
0
0
0
0
0
0
0
0
0
0
0
0
0
0
0
0
0
0
0
0
0
0
0
0
0
0
0
0
0
0
0
0
0
0
0
0
0
0
0
0
0
0
0
0
0
0
0
0
0
0
0
0
0
0
0
0
0
0
0
0
0
0
0
0
0
0
0
0
0
0
0
0
0
0
0
0
0
0
0
0
0
0
0
0
0
0
0
0
0
0
0
0
0
0
0
0
0
0
0
)
;

boundaryField
{
    sides
    {
        type            zeroGradient;
    }
    empty
    {
        type            empty;
    }
}


// ************************************************************************* //
