/*--------------------------------*- C++ -*----------------------------------*\
| =========                 |                                                 |
| \\      /  F ield         | OpenFOAM: The Open Source CFD Toolbox           |
|  \\    /   O peration     | Version:  2312                                  |
|   \\  /    A nd           | Website:  www.openfoam.com                      |
|    \\/     M anipulation  |                                                 |
\*---------------------------------------------------------------------------*/
FoamFile
{
    version     2.0;
    format      ascii;
    arch        "LSB;label=32;scalar=64";
    class       volScalarField;
    location    "1.2";
    object      T;
}
// * * * * * * * * * * * * * * * * * * * * * * * * * * * * * * * * * * * * * //

dimensions      [0 0 0 1 0 0 0];

internalField   nonuniform List<scalar> 
1000
(
9.84428e-20
1.003e-19
1.05468e-19
1.14107e-19
1.26491e-19
1.43009e-19
1.64178e-19
1.90662e-19
2.23287e-19
2.63068e-19
3.1124e-19
3.69292e-19
4.39011e-19
5.22537e-19
6.22424e-19
7.41711e-19
8.84014e-19
1.05363e-18
1.25566e-18
1.49614e-18
1.78225e-18
2.12248e-18
2.52687e-18
3.00733e-18
3.57792e-18
4.25528e-18
5.05906e-18
6.0125e-18
7.14303e-18
8.48301e-18
1.00707e-17
1.1951e-17
1.41772e-17
1.68119e-17
1.99288e-17
2.36148e-17
2.79721e-17
3.3121e-17
3.92031e-17
4.63849e-17
5.48617e-17
6.48636e-17
7.66602e-17
9.05684e-17
1.0696e-16
1.26271e-16
1.49013e-16
1.75785e-16
2.07289e-16
2.44348e-16
2.87924e-16
3.39144e-16
3.99327e-16
4.70013e-16
5.53004e-16
6.50405e-16
7.64674e-16
8.98681e-16
1.05578e-15
1.23987e-15
1.45551e-15
1.70801e-15
2.00357e-15
2.34938e-15
2.75385e-15
3.22673e-15
3.77939e-15
4.42504e-15
5.17904e-15
6.05923e-15
7.08634e-15
8.28442e-15
9.68141e-15
1.13097e-14
1.32068e-14
1.54164e-14
1.79889e-14
2.09826e-14
2.44653e-14
2.85153e-14
3.32232e-14
3.86937e-14
4.50479e-14
5.24257e-14
6.09886e-14
7.09234e-14
8.24451e-14
9.58023e-14
1.11281e-13
1.29212e-13
1.49975e-13
1.74009e-13
2.01817e-13
2.3398e-13
2.71166e-13
3.14142e-13
3.63792e-13
4.21127e-13
4.87314e-13
5.63688e-13
6.51784e-13
7.5336e-13
8.70435e-13
1.00532e-12
1.16067e-12
1.3395e-12
1.54531e-12
1.78205e-12
2.05429e-12
2.3672e-12
2.72673e-12
3.13968e-12
3.61377e-12
4.15787e-12
4.78206e-12
5.49785e-12
6.31837e-12
7.25856e-12
8.33547e-12
9.56848e-12
1.09797e-11
1.25942e-11
1.44406e-11
1.65513e-11
1.89632e-11
2.17184e-11
2.48642e-11
2.84548e-11
3.25515e-11
3.72236e-11
4.255e-11
4.86199e-11
5.55343e-11
6.34077e-11
7.23695e-11
8.25662e-11
9.41634e-11
1.07348e-10
1.22332e-10
1.39354e-10
1.58683e-10
1.80624e-10
2.05519e-10
2.33755e-10
2.65769e-10
3.0205e-10
3.43152e-10
3.89697e-10
4.42384e-10
5.02001e-10
5.69433e-10
6.45674e-10
7.31839e-10
8.29184e-10
9.39114e-10
1.06321e-09
1.20323e-09
1.36118e-09
1.53926e-09
1.73996e-09
1.96608e-09
2.22072e-09
2.50738e-09
2.82994e-09
3.19276e-09
3.6007e-09
4.0592e-09
4.57431e-09
5.1528e-09
5.8022e-09
6.53091e-09
7.34829e-09
8.26477e-09
9.29196e-09
1.04428e-08
1.17316e-08
1.31743e-08
1.47887e-08
1.65946e-08
1.86137e-08
2.08704e-08
2.33917e-08
2.62073e-08
2.93505e-08
3.2858e-08
3.67703e-08
4.11325e-08
4.59943e-08
5.14109e-08
5.7443e-08
6.4158e-08
7.16301e-08
7.99415e-08
8.91826e-08
9.94533e-08
1.10864e-07
1.23535e-07
1.37602e-07
1.53211e-07
1.70524e-07
1.89719e-07
2.10994e-07
2.34563e-07
2.60664e-07
2.89556e-07
3.21526e-07
3.56886e-07
3.95982e-07
4.3919e-07
4.86923e-07
5.39635e-07
5.9782e-07
6.62021e-07
7.32832e-07
8.10902e-07
8.9694e-07
9.9172e-07
1.09609e-06
1.21097e-06
1.33738e-06
1.4764e-06
1.62925e-06
1.79721e-06
1.98173e-06
2.18433e-06
2.40672e-06
2.65071e-06
2.91831e-06
3.21167e-06
3.53315e-06
3.8853e-06
4.27088e-06
4.6929e-06
5.15463e-06
5.65958e-06
6.21157e-06
6.81476e-06
7.47362e-06
8.19299e-06
8.97812e-06
9.83466e-06
1.07687e-05
1.17869e-05
1.28964e-05
1.41048e-05
1.54205e-05
1.68523e-05
1.841e-05
2.01038e-05
2.19449e-05
2.39453e-05
2.61179e-05
2.84766e-05
3.10363e-05
3.3813e-05
3.68237e-05
4.0087e-05
4.36226e-05
4.74516e-05
5.15967e-05
5.60821e-05
6.09338e-05
6.61796e-05
7.18492e-05
7.79743e-05
8.45887e-05
9.17288e-05
9.9433e-05
0.000107743
0.000116701
0.000126356
0.000136757
0.000147957
0.000160012
0.000172982
0.000186931
0.000201928
0.000218043
0.000235353
0.00025394
0.000273888
0.00029529
0.000318242
0.000342845
0.000369208
0.000397445
0.000427677
0.000460031
0.000494643
0.000531654
0.000571215
0.000613483
0.000658627
0.00070682
0.000758249
0.000813108
0.000871602
0.000933945
0.00100036
0.0010711
0.00114639
0.00122651
0.00131172
0.00140232
0.0014986
0.00160088
0.00170949
0.00182477
0.00194709
0.00207681
0.00221432
0.00236005
0.0025144
0.00267784
0.00285081
0.0030338
0.00322732
0.00343187
0.003648
0.00387628
0.00411728
0.00437161
0.0046399
0.00492279
0.00522095
0.00553508
0.0058659
0.00621415
0.00658059
0.00696602
0.00737125
0.00779712
0.0082445
0.00871428
0.00920738
0.00972473
0.0102673
0.0108361
0.0114321
0.0120564
0.0127101
0.0133942
0.0141099
0.0148583
0.0156406
0.0164579
0.0173115
0.0182027
0.0191326
0.0201027
0.0211141
0.0221682
0.0232663
0.0244098
0.0256002
0.0268387
0.0281268
0.0294659
0.0308575
0.0323029
0.0338038
0.0353614
0.0369773
0.038653
0.0403899
0.0421896
0.0440535
0.045983
0.0479797
0.050045
0.0521804
0.0543873
0.0566671
0.0590213
0.0614512
0.0639583
0.0665438
0.0692091
0.0719554
0.0747841
0.0776964
0.0806934
0.0837763
0.0869461
0.090204
0.093551
0.0969879
0.100516
0.104135
0.107847
0.111653
0.115552
0.119546
0.123634
0.127818
0.132098
0.136474
0.140946
0.145514
0.150179
0.154939
0.159796
0.164749
0.169797
0.17494
0.180177
0.185508
0.190932
0.196448
0.202055
0.207752
0.213538
0.219411
0.22537
0.231414
0.23754
0.243747
0.250033
0.256397
0.262835
0.269345
0.275926
0.282575
0.289289
0.296065
0.302901
0.309794
0.316741
0.323738
0.330783
0.337871
0.345
0.352166
0.359366
0.366595
0.37385
0.381127
0.388421
0.39573
0.403048
0.410371
0.417696
0.425018
0.432332
0.439634
0.446919
0.454183
0.461422
0.468629
0.475802
0.482935
0.490024
0.497063
0.504048
0.510974
0.517836
0.52463
0.531351
0.537994
0.544554
0.551027
0.557408
0.563692
0.569875
0.575951
0.581918
0.58777
0.593502
0.599111
0.604592
0.609941
0.615154
0.620227
0.625156
0.629937
0.634566
0.639041
0.643356
0.64751
0.651498
0.655318
0.658966
0.662439
0.665736
0.668852
0.671786
0.674535
0.677098
0.679471
0.681653
0.683643
0.685439
0.687038
0.688441
0.689645
0.69065
0.691455
0.692059
0.692462
0.692664
0.692664
0.692462
0.692059
0.691455
0.69065
0.689645
0.688441
0.687038
0.685439
0.683643
0.681653
0.679471
0.677098
0.674535
0.671786
0.668852
0.665736
0.662439
0.658966
0.655318
0.651498
0.64751
0.643356
0.639041
0.634566
0.629937
0.625156
0.620227
0.615154
0.609941
0.604592
0.599111
0.593502
0.58777
0.581918
0.575951
0.569875
0.563692
0.557408
0.551027
0.544554
0.537994
0.531351
0.52463
0.517836
0.510974
0.504048
0.497063
0.490024
0.482935
0.475802
0.468629
0.461422
0.454183
0.446919
0.439634
0.432332
0.425018
0.417696
0.410371
0.403048
0.39573
0.388421
0.381127
0.37385
0.366595
0.359366
0.352166
0.345
0.337871
0.330783
0.323738
0.316741
0.309794
0.302901
0.296065
0.289289
0.282575
0.275926
0.269345
0.262835
0.256397
0.250033
0.243747
0.23754
0.231414
0.22537
0.219411
0.213538
0.207752
0.202055
0.196448
0.190932
0.185508
0.180177
0.17494
0.169797
0.164749
0.159796
0.154939
0.150179
0.145514
0.140946
0.136474
0.132098
0.127818
0.123634
0.119546
0.115552
0.111653
0.107847
0.104135
0.100516
0.0969879
0.093551
0.090204
0.0869461
0.0837763
0.0806934
0.0776964
0.0747841
0.0719554
0.0692091
0.0665438
0.0639583
0.0614512
0.0590213
0.0566671
0.0543873
0.0521804
0.050045
0.0479797
0.045983
0.0440535
0.0421896
0.0403899
0.038653
0.0369773
0.0353614
0.0338038
0.0323029
0.0308575
0.0294659
0.0281268
0.0268387
0.0256002
0.0244098
0.0232663
0.0221682
0.0211141
0.0201027
0.0191326
0.0182027
0.0173115
0.0164579
0.0156406
0.0148583
0.0141099
0.0133942
0.0127101
0.0120564
0.0114321
0.0108361
0.0102673
0.00972473
0.00920738
0.00871428
0.0082445
0.00779712
0.00737125
0.00696602
0.00658059
0.00621415
0.0058659
0.00553508
0.00522095
0.00492279
0.0046399
0.00437161
0.00411728
0.00387628
0.003648
0.00343187
0.00322732
0.0030338
0.00285081
0.00267784
0.0025144
0.00236005
0.00221432
0.00207681
0.00194709
0.00182477
0.00170949
0.00160088
0.0014986
0.00140232
0.00131172
0.00122651
0.00114639
0.0010711
0.00100036
0.000933945
0.000871602
0.000813108
0.000758249
0.00070682
0.000658627
0.000613483
0.000571215
0.000531654
0.000494643
0.000460031
0.000427677
0.000397445
0.000369208
0.000342845
0.000318242
0.00029529
0.000273888
0.00025394
0.000235353
0.000218043
0.000201928
0.000186931
0.000172982
0.000160012
0.000147957
0.000136757
0.000126356
0.000116701
0.000107743
9.9433e-05
9.17288e-05
8.45887e-05
7.79743e-05
7.18492e-05
6.61796e-05
6.09338e-05
5.60821e-05
5.15967e-05
4.74516e-05
4.36226e-05
4.0087e-05
3.68237e-05
3.3813e-05
3.10363e-05
2.84766e-05
2.61179e-05
2.39453e-05
2.19449e-05
2.01038e-05
1.841e-05
1.68523e-05
1.54205e-05
1.41048e-05
1.28964e-05
1.17869e-05
1.07687e-05
9.83466e-06
8.97812e-06
8.19299e-06
7.47362e-06
6.81476e-06
6.21157e-06
5.65958e-06
5.15463e-06
4.6929e-06
4.27088e-06
3.8853e-06
3.53315e-06
3.21167e-06
2.91831e-06
2.65071e-06
2.40672e-06
2.18433e-06
1.98173e-06
1.79721e-06
1.62925e-06
1.4764e-06
1.33738e-06
1.21097e-06
1.09609e-06
9.9172e-07
8.9694e-07
8.10902e-07
7.32832e-07
6.62021e-07
5.9782e-07
5.39635e-07
4.86923e-07
4.3919e-07
3.95982e-07
3.56886e-07
3.21526e-07
2.89556e-07
2.60664e-07
2.34563e-07
2.10994e-07
1.89719e-07
1.70524e-07
1.53211e-07
1.37602e-07
1.23535e-07
1.10864e-07
9.94533e-08
8.91826e-08
7.99415e-08
7.16301e-08
6.4158e-08
5.7443e-08
5.14109e-08
4.59943e-08
4.11325e-08
3.67703e-08
3.2858e-08
2.93505e-08
2.62073e-08
2.33917e-08
2.08704e-08
1.86137e-08
1.65946e-08
1.47887e-08
1.31743e-08
1.17316e-08
1.04428e-08
9.29196e-09
8.26477e-09
7.34829e-09
6.53091e-09
5.8022e-09
5.1528e-09
4.57431e-09
4.0592e-09
3.6007e-09
3.19276e-09
2.82994e-09
2.50738e-09
2.22072e-09
1.96608e-09
1.73996e-09
1.53926e-09
1.36118e-09
1.20323e-09
1.06321e-09
9.39114e-10
8.29184e-10
7.31839e-10
6.45674e-10
5.69433e-10
5.02001e-10
4.42384e-10
3.89697e-10
3.43152e-10
3.0205e-10
2.65769e-10
2.33755e-10
2.05519e-10
1.80624e-10
1.58683e-10
1.39354e-10
1.22332e-10
1.07348e-10
9.41634e-11
8.25662e-11
7.23695e-11
6.34077e-11
5.55343e-11
4.86199e-11
4.255e-11
3.72236e-11
3.25515e-11
2.84548e-11
2.48642e-11
2.17184e-11
1.89632e-11
1.65513e-11
1.44406e-11
1.25942e-11
1.09797e-11
9.56848e-12
8.33547e-12
7.25856e-12
6.31837e-12
5.49785e-12
4.78206e-12
4.15787e-12
3.61377e-12
3.13968e-12
2.72673e-12
2.3672e-12
2.05429e-12
1.78205e-12
1.54531e-12
1.3395e-12
1.16067e-12
1.00532e-12
8.70435e-13
7.5336e-13
6.51784e-13
5.63688e-13
4.87314e-13
4.21127e-13
3.63792e-13
3.14142e-13
2.71166e-13
2.3398e-13
2.01817e-13
1.74009e-13
1.49975e-13
1.29212e-13
1.11281e-13
9.58023e-14
8.24451e-14
7.09234e-14
6.09886e-14
5.24257e-14
4.50479e-14
3.86937e-14
3.32232e-14
2.85153e-14
2.44653e-14
2.09826e-14
1.79889e-14
1.54164e-14
1.32068e-14
1.13097e-14
9.68141e-15
8.28442e-15
7.08634e-15
6.05923e-15
5.17904e-15
4.42504e-15
3.77939e-15
3.22673e-15
2.75385e-15
2.34938e-15
2.00357e-15
1.70801e-15
1.45551e-15
1.23987e-15
1.05578e-15
8.98681e-16
7.64674e-16
6.50405e-16
5.53004e-16
4.70013e-16
3.99327e-16
3.39144e-16
2.87924e-16
2.44348e-16
2.07289e-16
1.75785e-16
1.49013e-16
1.26271e-16
1.0696e-16
9.05684e-17
7.66602e-17
6.48636e-17
5.48617e-17
4.63849e-17
3.92031e-17
3.3121e-17
2.79721e-17
2.36148e-17
1.99288e-17
1.68119e-17
1.41772e-17
1.1951e-17
1.00707e-17
8.48301e-18
7.14303e-18
6.0125e-18
5.05906e-18
4.25528e-18
3.57792e-18
3.00733e-18
2.52687e-18
2.12248e-18
1.78225e-18
1.49614e-18
1.25566e-18
1.05363e-18
8.84014e-19
7.41711e-19
6.22424e-19
5.22537e-19
4.39011e-19
3.69292e-19
3.1124e-19
2.63068e-19
2.23287e-19
1.90662e-19
1.64178e-19
1.43009e-19
1.26491e-19
1.14107e-19
1.05468e-19
1.003e-19
9.84428e-20
)
;

boundaryField
{
    sides
    {
        type            zeroGradient;
    }
    empty
    {
        type            empty;
    }
}


// ************************************************************************* //
