/*--------------------------------*- C++ -*----------------------------------*\
| =========                 |                                                 |
| \\      /  F ield         | OpenFOAM: The Open Source CFD Toolbox           |
|  \\    /   O peration     | Version:  2312                                  |
|   \\  /    A nd           | Website:  www.openfoam.com                      |
|    \\/     M anipulation  |                                                 |
\*---------------------------------------------------------------------------*/
FoamFile
{
    version     2.0;
    format      ascii;
    arch        "LSB;label=32;scalar=64";
    class       volScalarField;
    location    "4.7";
    object      T;
}
// * * * * * * * * * * * * * * * * * * * * * * * * * * * * * * * * * * * * * //

dimensions      [0 0 0 1 0 0 0];

internalField   nonuniform List<scalar> 
1000
(
1.06423e-285
-3.49053e-286
5.65477e-285
-2.59617e-284
1.33998e-283
-6.76465e-283
3.4104e-282
-1.71187e-281
8.55891e-281
-4.26198e-280
2.11369e-279
-1.04399e-278
5.13533e-278
-2.51561e-277
1.22718e-276
-5.96149e-276
2.88382e-275
-1.38911e-274
6.66269e-274
-3.18193e-273
1.51304e-272
-7.16328e-272
3.37648e-271
-1.5845e-270
7.40255e-270
-3.44285e-269
1.594e-268
-7.34638e-268
3.37024e-267
-1.53899e-266
6.99484e-266
-3.16427e-265
1.42464e-264
-6.38346e-264
2.84647e-263
-1.26311e-262
5.57746e-262
-2.45063e-261
1.07138e-260
-4.66027e-260
2.0168e-259
-8.68316e-259
3.71904e-258
-1.58454e-257
6.71531e-257
-2.83074e-256
1.1868e-255
-4.94851e-255
2.05193e-254
-8.46092e-254
3.46904e-253
-1.41419e-252
5.7317e-252
-2.30944e-251
9.24999e-251
-3.68262e-250
1.45719e-249
-5.73039e-249
2.23935e-248
-8.69545e-248
3.35468e-247
-1.28575e-246
4.89511e-246
-1.85107e-245
6.95167e-245
-2.59244e-244
9.59898e-244
-3.52844e-243
1.28742e-242
-4.66203e-242
1.67524e-241
-5.97249e-241
2.11219e-240
-7.40843e-240
2.57662e-239
-8.884e-239
3.036e-238
-1.02806e-237
3.44861e-237
-1.14564e-236
3.76778e-236
-1.22633e-235
3.94857e-235
-1.25717e-234
3.95603e-234
-1.22969e-233
3.77338e-233
-1.14223e-232
3.40807e-232
-1.0013e-231
2.89351e-231
-8.21253e-231
2.28544e-230
-6.22229e-230
1.65266e-229
-4.2658e-229
1.06427e-228
-2.54582e-228
5.76292e-228
-1.20561e-227
2.21416e-227
-3.05323e-227
4.82267e-228
1.80049e-226
-9.29004e-226
3.41145e-225
-1.06938e-224
3.005e-224
-7.66714e-224
1.76227e-223
-3.52248e-223
5.46974e-223
-3.20669e-223
-2.07517e-222
1.2158e-221
-4.48426e-221
1.34953e-220
-3.49732e-220
7.77887e-220
-1.39285e-219
1.47547e-219
2.20696e-219
-2.01366e-218
8.01566e-218
-2.43233e-217
6.09539e-217
-1.2412e-216
1.76162e-216
-1.08634e-218
-1.15012e-215
5.29845e-215
-1.67694e-214
4.19995e-214
-8.17693e-214
9.70886e-214
9.4118e-214
-1.05808e-212
4.14706e-212
-1.17074e-211
2.53469e-211
-3.68097e-211
-1.21508e-212
2.44378e-210
-1.07041e-209
3.12338e-209
-6.7574e-209
9.30632e-209
3.18082e-209
-7.39534e-208
2.99374e-207
-8.13519e-207
1.56537e-206
-1.46234e-206
-3.83654e-206
2.57285e-205
-8.44168e-205
1.91421e-204
-2.64233e-204
-1.18805e-204
2.19024e-203
-8.36804e-203
2.07432e-202
-3.23597e-202
9.60802e-204
2.02629e-201
-8.36188e-201
2.1219e-200
-3.30597e-200
-1.02719e-201
2.14378e-199
-8.56362e-199
2.07361e-198
-2.85443e-198
-1.77774e-198
2.51351e-197
-8.81296e-197
1.88239e-196
-1.82001e-196
-4.76774e-196
3.00636e-195
-8.66751e-195
1.45932e-194
-1.69109e-195
-8.52919e-194
3.36971e-193
-7.48936e-193
7.29951e-193
1.93376e-192
-1.18626e-191
3.24445e-191
-4.71868e-191
-2.69013e-191
3.94571e-190
-1.29167e-189
2.29952e-189
-3.939e-190
-1.28745e-188
4.93481e-188
-9.90472e-188
5.15454e-188
4.29032e-187
-1.85831e-186
3.98061e-186
-2.6608e-186
-1.51912e-185
7.00751e-185
-1.52592e-184
1.0202e-184
5.84948e-184
-2.6608e-183
5.60648e-183
-2.95597e-183
-2.431e-182
1.01253e-181
-1.95548e-181
4.22342e-182
1.0553e-180
-3.80705e-180
6.29434e-180
2.27486e-180
-4.59876e-179
1.38197e-178
-1.74736e-178
-2.68794e-178
1.94112e-177
-4.67657e-177
3.34543e-177
1.76082e-176
-7.68103e-176
1.38743e-175
2.37093e-176
-9.14685e-175
2.74179e-174
-3.08446e-174
-6.90653e-174
4.01018e-173
-8.26519e-173
1.35235e-173
4.55732e-172
-1.47471e-171
1.75131e-171
3.54401e-171
-2.1191e-170
4.23903e-170
1.7068e-172
-2.54065e-169
7.51302e-169
-6.97219e-169
-2.43728e-168
1.12732e-167
-1.82442e-167
-1.4322e-167
1.4972e-166
-3.43862e-166
9.16452e-167
1.77959e-165
-5.56867e-165
5.11162e-165
1.86524e-164
-8.21267e-164
1.17261e-163
1.61549e-163
-1.13441e-162
2.1433e-162
8.59356e-163
-1.49272e-161
3.50665e-161
-6.11643e-162
-1.8945e-160
5.3726e-160
-3.0511e-160
-2.34458e-159
7.89356e-159
-6.76659e-159
-2.86217e-158
1.12879e-157
-1.21261e-157
-3.49357e-157
1.58727e-156
-1.95536e-156
-4.33297e-156
2.21067e-155
-2.94973e-155
-5.55564e-155
3.06428e-154
-4.23403e-154
-7.4691e-154
4.23835e-153
-5.82046e-153
-1.05889e-152
5.85201e-152
-7.65684e-152
-1.57432e-151
8.05168e-151
-9.55861e-151
-2.42049e-150
1.09965e-149
-1.10972e-149
-3.78308e-149
1.48177e-148
-1.14311e-148
-5.91551e-148
1.95334e-147
-9.07627e-148
-9.13228e-147
2.48934e-146
-1.63825e-147
-1.37662e-145
3.01293e-145
1.44138e-145
-2.00583e-144
3.36012e-144
4.37512e-144
-2.79408e-143
3.23796e-143
9.16449e-143
-3.66768e-142
2.18991e-142
1.624e-141
-4.43555e-141
-4.01755e-142
2.56205e-140
-4.73275e-140
-5.22566e-140
3.6403e-139
-3.98362e-139
-1.27951e-138
4.60968e-138
-1.43408e-138
-2.29835e-137
5.00046e-137
3.67299e-137
-3.43431e-136
4.11141e-136
1.1701e-135
-4.3361e-135
1.1251e-135
2.19741e-134
-4.4079e-134
-4.56399e-134
3.20038e-133
-2.88088e-133
-1.27651e-132
3.69736e-132
9.17108e-133
-2.1749e-131
3.01844e-131
7.04475e-131
-2.77055e-130
5.31208e-131
1.4273e-129
-2.50617e-129
-3.90727e-129
1.95916e-128
-8.43882e-129
-9.36454e-128
1.85081e-127
2.3423e-127
-1.34387e-126
6.80748e-127
6.28043e-126
-1.26084e-125
-1.60797e-125
9.03588e-125
-3.85215e-125
-4.32874e-124
7.94593e-124
1.25367e-123
-5.9283e-123
1.10591e-123
3.02675e-122
-4.50442e-122
-1.03938e-121
3.71949e-121
8.73701e-122
-2.08847e-120
2.10058e-120
8.54317e-120
-2.14224e-119
-1.98185e-119
1.36805e-118
-5.43248e-119
-6.60784e-118
1.03893e-117
2.31785e-117
-8.05488e-117
-3.35086e-117
4.60191e-116
-3.18003e-116
-2.07898e-115
3.84702e-115
6.912e-115
-2.72067e-114
-8.68112e-115
1.508e-113
-1.03077e-113
-6.86205e-113
1.19461e-112
2.44122e-112
-8.48763e-112
-4.86867e-112
4.84524e-111
-1.81108e-111
-2.34899e-110
2.97825e-110
9.58719e-110
-2.34614e-109
-2.9944e-109
1.45359e-108
3.70146e-109
-7.76618e-108
4.15716e-108
3.66533e-107
-4.89674e-107
-1.51325e-106
3.60812e-106
5.1458e-106
-2.20384e-105
-1.10008e-105
1.19717e-104
-2.37643e-105
-5.92976e-104
5.00634e-104
2.69324e-103
-4.19449e-103
-1.11032e-102
2.77633e-102
4.00427e-102
-1.62715e-101
-1.11922e-101
8.79714e-101
9.89771e-102
-4.47099e-100
1.74889e-100
2.15599e-99
-1.90469e-99
-9.90157e-99
1.39955e-98
4.32803e-98
-8.82782e-98
-1.79013e-97
5.11264e-97
6.90718e-97
-2.79912e-96
-2.40574e-96
1.4716e-95
6.91003e-96
-7.50169e-95
-1.05241e-95
3.73259e-94
-5.6276e-95
-1.82175e-93
7.5916e-94
8.75625e-93
-5.82582e-93
-4.15874e-92
3.74665e-92
1.95767e-91
-2.20266e-91
-9.15988e-91
1.22514e-90
4.27165e-90
-6.55899e-90
-1.99069e-89
3.41338e-89
9.29391e-89
-1.73731e-88
-4.3569e-88
8.68172e-88
2.05488e-87
-4.27013e-87
-9.76478e-87
2.0701e-86
4.67925e-86
-9.89674e-86
-2.26148e-85
4.66478e-85
1.10172e-84
-2.16539e-84
-5.40344e-84
9.87895e-84
2.66331e-83
-4.41477e-83
-1.31635e-82
1.92249e-82
6.50801e-82
-8.09056e-82
-3.20999e-81
3.24469e-81
1.57521e-80
-1.20776e-80
-7.66837e-80
3.92853e-80
3.69206e-79
-9.11014e-80
-1.75218e-78
-5.80704e-80
8.16498e-78
2.72447e-78
-3.71824e-77
-2.47518e-77
1.64445e-76
1.72276e-76
-7.00099e-76
-1.05894e-75
2.82946e-75
6.01546e-75
-1.0589e-74
-3.21796e-74
3.47717e-74
1.63396e-73
-8.48111e-74
-7.88957e-73
8.1496e-75
3.61208e-72
1.79036e-72
-1.555e-71
-1.63986e-71
6.18689e-71
1.08802e-70
-2.19226e-70
-6.19923e-70
6.26741e-70
3.18029e-69
-8.7763e-70
-1.48924e-68
-5.54665e-69
6.33873e-68
6.68678e-68
-2.39355e-67
-4.63749e-67
7.47645e-67
2.6031e-66
-1.45918e-66
-1.26738e-65
-2.94877e-66
5.41142e-65
5.47065e-65
-1.97234e-64
-3.98615e-64
5.51524e-64
2.2108e-63
-6.01318e-64
-1.02432e-62
-6.08215e-63
3.97432e-62
6.14835e-62
-1.1955e-61
-3.76503e-61
1.793e-61
1.80821e-60
9.08839e-61
-7.00765e-60
-1.0664e-59
2.00635e-59
6.59064e-59
-2.13393e-59
-3.06242e-58
-2.19365e-58
1.09395e-57
2.08213e-57
-2.50987e-57
-1.16044e-56
-1.7272e-57
4.77737e-56
5.98816e-56
-1.37319e-55
-4.09236e-55
1.20116e-55
1.87609e-54
1.6617e-54
-6.00434e-54
-1.41171e-53
8.52835e-54
6.9803e-53
4.89298e-53
-2.33473e-52
-4.9464e-52
3.60386e-52
2.52543e-51
1.7096e-51
-8.34353e-51
-1.79427e-50
1.12471e-50
8.93924e-50
7.2343e-50
-2.73145e-49
-6.69126e-49
2.14074e-49
3.05382e-48
3.35993e-48
-7.84772e-48
-2.48692e-47
-3.23853e-48
9.71012e-47
1.53661e-46
-1.72032e-46
-8.78454e-46
-6.01225e-46
2.66869e-45
6.44879e-45
-1.02871e-45
-2.76207e-44
-3.83232e-44
5.18505e-44
2.34971e-43
1.6124e-43
-6.86218e-43
-1.73924e-42
-5.25789e-44
6.8494e-42
1.13644e-41
-8.58093e-42
-5.92533e-41
-6.45295e-41
1.26257e-40
4.67467e-40
2.95556e-40
-1.33408e-39
-3.45392e-39
-7.46605e-40
1.22159e-38
2.43285e-38
-4.72171e-39
-1.03089e-37
-1.65817e-37
1.01806e-37
8.26234e-37
1.1103e-36
-1.1547e-36
-6.40373e-36
-7.43069e-36
1.07181e-35
4.85698e-35
5.06721e-35
-8.9183e-35
-3.6331e-34
-3.58591e-34
6.86258e-34
2.69154e-33
2.6636e-33
-4.92444e-33
-1.9763e-32
-2.07524e-32
3.26971e-32
1.43408e-31
1.67459e-31
-1.94899e-31
-1.02149e-30
-1.37285e-30
9.54928e-31
7.06281e-30
1.12048e-29
-2.54281e-30
-4.65839e-29
-8.9362e-29
-1.96153e-29
2.84785e-28
6.84282e-28
4.42566e-28
-1.52494e-27
-4.93557e-27
-5.31476e-27
6.10011e-27
3.26735e-26
5.08437e-26
-3.43414e-27
-1.89761e-25
-4.16561e-25
-2.6941e-25
8.67025e-25
2.94347e-24
3.70825e-24
-1.82029e-24
-1.73032e-23
-3.40011e-23
-1.90374e-23
7.41808e-23
2.42088e-22
3.17105e-22
-8.43071e-23
-1.30213e-21
-2.84586e-21
-2.39259e-21
3.98441e-21
1.79467e-20
3.0349e-20
1.33811e-20
-7.04018e-20
-2.20359e-19
-3.10695e-19
-3.23227e-20
9.67579e-19
2.55236e-18
3.22273e-18
-3.43926e-19
-1.16464e-17
-2.87511e-17
-3.53998e-17
3.68418e-18
1.26583e-16
3.18042e-16
4.16766e-16
5.31021e-17
-1.22226e-15
-3.41162e-15
-5.10134e-15
-2.56312e-15
9.61686e-15
3.4133e-14
6.12819e-14
5.67801e-14
-4.1227e-14
-2.93382e-13
-6.73311e-13
-9.23945e-13
-4.27085e-13
1.72205e-12
6.12816e-12
1.17238e-11
1.37531e-11
2.2657e-12
-3.61622e-11
-1.09356e-10
-1.9951e-10
-2.33771e-10
-5.97141e-11
5.39646e-10
1.7351e-09
3.38405e-09
4.5904e-09
3.20784e-09
-4.34882e-09
-2.22804e-08
-5.25646e-08
-8.9134e-08
-1.0894e-07
-6.19998e-08
1.33418e-07
5.78512e-07
1.34632e-06
2.37692e-06
3.29823e-06
3.17605e-06
2.43546e-07
-8.25854e-06
-2.58803e-05
-5.59963e-05
-9.95034e-05
-0.000150472
-0.000188971
-0.000170373
-1.07431e-05
0.000431541
0.00137695
0.00314674
0.00618252
0.0110593
0.0184876
0.0292991
0.0444132
0.0647822
0.0913151
0.124786
0.165735
0.21437
0.270485
0.333407
0.401988
0.474633
0.549387
0.624064
0.696403
0.764247
0.825708
0.879319
0.924134
0.959781
0.98645
1.00483
1.01602
1.02135
1.02227
1.02022
1.01645
1.01203
1.00774
1.00407
1.00128
0.999428
0.998413
0.998063
0.998168
0.998532
0.99899
0.999429
0.99978
1.00002
1.00015
1.0002
1.00018
1.00014
1.00009
1.00004
1.00001
0.999988
0.99998
0.99998
0.999984
0.99999
0.999996
0.999999
1
1
1
1
1
1
1
1
1
1
1
1
1
1
1
1
1
1
1
1
1
1
1
1
1
1
1
0.999999
0.999999
0.999998
0.999997
0.999997
1
1.00001
1.00003
1.00006
1.0001
1.00015
1.00019
1.00017
1.00001
0.999568
0.998623
0.996853
0.993817
0.988941
0.981512
0.970701
0.955587
0.935218
0.908685
0.875214
0.834265
0.78563
0.729515
0.666593
0.598012
0.525367
0.450613
0.375936
0.303597
0.235753
0.174292
0.120681
0.075866
0.0402194
0.0135501
-0.00483448
-0.0160204
-0.0213499
-0.022275
-0.0202176
-0.0164544
-0.0120349
-0.0077389
-0.0040702
-0.00128276
0.000572029
0.00158658
0.00193731
0.00183186
0.00146848
0.00100995
0.000571401
0.00021959
-1.9876e-05
-0.000151187
-0.00019609
-0.000183145
-0.000139835
-8.78833e-05
-4.14713e-05
-7.59675e-06
1.23165e-05
2.03532e-05
2.01793e-05
1.55893e-05
9.63794e-06
4.29994e-06
5.11519e-07
-1.57573e-06
-2.27541e-06
-2.08183e-06
-1.47061e-06
-7.93633e-07
-2.51384e-07
8.52795e-08
2.31495e-07
2.43652e-07
1.85222e-07
1.06937e-07
3.97034e-08
-3.89316e-09
-2.39481e-08
-2.6942e-08
-2.07916e-08
-1.19425e-08
-4.30918e-09
5.49177e-10
2.67507e-09
2.88157e-09
2.12017e-09
1.13039e-09
3.31054e-10
-1.37448e-10
-3.09515e-10
-2.91859e-10
-1.92591e-10
-8.70956e-11
-1.20379e-11
2.53892e-11
3.38761e-11
2.66437e-11
1.47413e-11
4.65704e-12
-1.29992e-12
-3.46208e-12
-3.23732e-12
-2.04561e-12
-8.36721e-13
-3.22035e-14
3.22169e-13
3.61038e-13
2.51537e-13
1.17114e-13
1.93491e-14
-2.83898e-14
-3.81278e-14
-2.84732e-14
-1.42028e-14
-3.17463e-15
2.50362e-15
3.90246e-15
3.03128e-15
1.55412e-15
3.78741e-16
-2.35582e-16
-3.92834e-16
-3.06892e-16
-1.56033e-16
-3.66881e-17
2.44675e-17
3.90593e-17
2.96347e-17
1.44215e-17
2.86946e-18
-2.73067e-18
-3.81374e-18
-2.71871e-18
-1.21723e-18
-1.5765e-19
3.08583e-19
3.60882e-19
2.34571e-19
9.17164e-20
7.27165e-22
-3.35709e-20
-3.25363e-20
-1.87191e-20
-5.85088e-21
1.32608e-21
3.40844e-21
2.74198e-21
1.34521e-21
2.69213e-22
-2.33759e-22
-3.24642e-22
-1.62158e-22
)
;

boundaryField
{
    sides
    {
        type            zeroGradient;
    }
    empty
    {
        type            empty;
    }
}


// ************************************************************************* //
