/*--------------------------------*- C++ -*----------------------------------*\
| =========                 |                                                 |
| \\      /  F ield         | OpenFOAM: The Open Source CFD Toolbox           |
|  \\    /   O peration     | Version:  2312                                  |
|   \\  /    A nd           | Website:  www.openfoam.com                      |
|    \\/     M anipulation  |                                                 |
\*---------------------------------------------------------------------------*/
FoamFile
{
    version     2.0;
    format      ascii;
    arch        "LSB;label=32;scalar=64";
    class       volScalarField;
    location    "2.8";
    object      T;
}
// * * * * * * * * * * * * * * * * * * * * * * * * * * * * * * * * * * * * * //

dimensions      [0 0 0 1 0 0 0];

internalField   nonuniform List<scalar> 
1000
(
0
0
0
0
0
0
0
0
0
0
0
-8.89318e-323
8.74496e-322
-9.00188e-321
9.37243e-320
-9.72212e-319
1.00534e-317
-1.03644e-316
1.06525e-315
-1.09151e-314
1.11498e-313
-1.13547e-312
1.15276e-311
-1.1667e-310
1.17715e-309
-1.18401e-308
1.1872e-307
-1.18668e-306
1.18245e-305
-1.17453e-304
1.163e-303
-1.14794e-302
1.12949e-301
-1.10782e-300
1.0831e-299
-1.05555e-298
1.02542e-297
-9.9295e-297
9.58415e-296
-9.22097e-295
8.84285e-294
-8.45273e-293
8.05353e-292
-7.64815e-291
7.23942e-290
-6.83004e-289
6.42261e-288
-6.01955e-287
5.62311e-286
-5.23534e-285
4.85808e-284
-4.49295e-283
4.14135e-282
-3.80444e-281
3.48317e-280
-3.17824e-279
2.89018e-278
-2.61929e-277
2.3657e-276
-2.12935e-275
1.91003e-274
-1.7074e-273
1.521e-272
-1.35026e-271
1.19451e-270
-1.05305e-269
9.25092e-269
-8.09831e-268
7.06435e-267
-6.14064e-266
5.3188e-265
-4.59057e-264
3.94792e-263
-3.38308e-262
2.88865e-261
-2.45759e-260
2.0833e-259
-1.7596e-258
1.48079e-257
-1.24161e-256
1.03725e-255
-8.63331e-255
7.15924e-254
-5.91487e-253
4.86862e-252
-3.99249e-251
3.26176e-250
-2.65476e-249
2.15258e-248
-1.73878e-247
1.39919e-246
-1.12163e-245
8.95693e-245
-7.12518e-244
5.64617e-243
-4.45685e-242
3.50438e-241
-2.74471e-240
2.1413e-239
-1.66398e-238
1.28796e-237
-9.92954e-237
7.62476e-236
-5.83156e-235
4.4422e-234
-3.37023e-233
2.5466e-232
-1.91644e-231
1.43633e-230
-1.07209e-229
7.9693e-229
-5.89945e-228
4.34908e-227
-3.1928e-226
2.33413e-225
-1.69922e-224
1.23179e-223
-8.89161e-223
6.39102e-222
-4.57402e-221
3.25954e-220
-2.31279e-219
1.63391e-218
-1.14927e-217
8.04848e-217
-5.61164e-216
3.89531e-215
-2.69192e-214
1.85199e-213
-1.26842e-212
8.64826e-212
-5.86977e-211
3.96582e-210
-2.66718e-209
1.78554e-208
-1.18981e-207
7.89152e-207
-5.20968e-206
3.42308e-205
-2.23856e-204
1.45698e-203
-9.43757e-203
6.08384e-202
-3.90297e-201
2.49172e-200
-1.58299e-199
1.00074e-198
-6.29528e-198
3.94045e-197
-2.45416e-196
1.52079e-195
-9.37642e-195
5.75161e-194
-3.51004e-193
2.13105e-192
-1.28712e-191
7.73339e-191
-4.62207e-190
2.74791e-189
-1.625e-188
9.55806e-188
-5.59165e-187
3.25346e-186
-1.88266e-185
1.08343e-184
-6.20031e-184
3.52855e-183
-1.99677e-182
1.12355e-181
-6.28596e-181
3.49659e-180
-1.93371e-179
1.06315e-178
-5.81077e-178
3.15708e-177
-1.70503e-176
9.15268e-176
-4.88331e-175
2.58945e-174
-1.36459e-173
7.14623e-173
-3.71883e-172
1.92294e-171
-9.87932e-171
5.04274e-170
-2.55715e-169
1.28815e-168
-6.44574e-168
3.20362e-167
-1.5814e-166
7.75258e-166
-3.77415e-165
1.82443e-164
-8.75667e-164
4.17269e-163
-1.97389e-162
9.26874e-162
-4.31988e-161
1.99817e-160
-9.172e-160
4.17754e-159
-1.88781e-158
8.46306e-158
-3.7634e-157
1.65984e-156
-7.25991e-156
3.14861e-155
-1.35386e-154
5.77071e-154
-2.43796e-153
1.0207e-152
-4.23417e-152
1.74008e-151
-7.08301e-151
2.85518e-150
-1.13953e-149
4.50201e-149
-1.76024e-148
6.80951e-148
-2.60571e-147
9.86013e-147
-3.68852e-146
1.36362e-145
-4.98028e-145
1.79624e-144
-6.39506e-144
2.24642e-143
-7.78184e-143
2.65686e-142
-8.93458e-142
2.95721e-141
-9.62576e-141
3.07835e-140
-9.66161e-140
2.97205e-139
-8.94641e-139
2.63017e-138
-7.53351e-138
2.09563e-137
-5.63754e-137
1.45791e-136
-3.59228e-136
8.31255e-136
-1.75935e-135
3.21202e-135
-4.18272e-135
-7.81597e-136
3.17087e-134
-1.49759e-133
5.17438e-133
-1.50915e-132
3.83338e-132
-8.36406e-132
1.44969e-131
-1.34667e-131
-3.21323e-131
2.39446e-130
-9.05887e-130
2.63142e-129
-6.20472e-129
1.12494e-128
-1.0774e-128
-2.45932e-128
1.81517e-127
-6.55646e-127
1.74933e-126
-3.51433e-126
4.17812e-126
4.42521e-126
-4.64331e-125
1.73354e-124
-4.49805e-124
8.15935e-124
-5.90425e-124
-2.74219e-123
1.53949e-122
-4.71313e-122
9.83333e-122
-1.06902e-121
-1.87204e-121
1.45227e-120
-4.73852e-120
9.99049e-120
-1.01796e-119
-2.2641e-119
1.54942e-118
-4.7093e-118
8.75414e-118
-4.52397e-118
-3.76582e-117
1.74277e-116
-4.33209e-116
5.59979e-116
5.93593e-116
-5.75351e-115
1.78661e-114
-3.06082e-114
1.7564e-115
1.84511e-113
-6.85678e-113
1.34307e-112
-5.86903e-113
-6.23053e-112
2.58336e-111
-5.286e-111
2.61434e-111
2.35004e-110
-9.7625e-110
1.91639e-109
-5.5505e-110
-9.87955e-109
3.67428e-108
-6.26423e-108
-1.62003e-108
4.36038e-107
-1.33191e-106
1.68386e-106
2.6531e-106
-1.87455e-105
4.36698e-105
-2.46767e-105
-1.86585e-104
7.30851e-104
-1.13671e-103
-9.0988e-104
9.61061e-103
-2.36129e-102
1.32554e-102
1.01933e-101
-3.80621e-101
5.07635e-101
7.92817e-101
-5.31237e-100
1.05e-99
1.71917e-100
-6.71178e-99
1.77426e-98
-9.49338e-99
-7.86807e-98
2.70503e-97
-2.67978e-97
-8.72323e-97
3.89209e-96
-5.14067e-96
-9.36095e-96
5.42965e-95
-8.47053e-95
-1.01074e-94
7.47954e-94
-1.28113e-93
-1.17007e-93
1.02963e-92
-1.82515e-92
-1.55644e-92
1.42456e-91
-2.46857e-91
-2.42125e-91
1.97951e-90
-3.15334e-90
-4.17568e-90
2.74332e-89
-3.72472e-89
-7.43521e-89
3.74389e-88
-3.85783e-88
-1.30136e-87
4.9397e-87
-2.96909e-87
-2.17775e-86
6.13559e-86
-1.53788e-87
-3.42203e-85
6.86503e-85
5.75383e-85
-4.95998e-84
6.27528e-84
1.58301e-83
-6.4591e-83
3.11835e-83
3.0218e-82
-7.17957e-82
-3.96204e-82
4.67002e-81
-5.92124e-81
-1.56115e-80
5.90396e-80
-1.27641e-80
-3.03162e-79
5.63056e-79
7.56179e-79
-4.27405e-78
2.54309e-78
1.93744e-77
-4.32173e-77
-4.06312e-77
2.94196e-76
-2.06873e-76
-1.29464e-75
2.93831e-75
2.90514e-75
-1.97685e-74
1.09218e-74
9.15894e-74
-1.77381e-73
-2.63121e-73
1.27676e-72
-1.72547e-73
-6.58223e-72
8.7477e-72
2.46792e-71
-7.45974e-71
-4.65014e-71
4.44861e-70
-2.36291e-70
-2.08871e-69
3.40982e-69
7.47858e-69
-2.52863e-68
-1.44322e-68
1.45609e-67
-6.04557e-68
-7.01752e-67
9.37058e-67
2.82245e-66
-7.2319e-66
-8.60919e-66
4.41797e-65
9.76264e-66
-2.34312e-64
1.23084e-64
1.11088e-63
-1.40244e-63
-4.71899e-63
1.02263e-62
1.75145e-62
-6.25955e-62
-5.17548e-62
3.45938e-61
7.16138e-62
-1.78062e-60
5.40557e-61
8.67719e-60
-6.73254e-60
-4.04267e-59
5.06636e-59
1.8121e-58
-3.20869e-58
-7.84903e-58
1.85577e-57
3.2963e-57
-1.01417e-56
-1.34641e-56
5.33324e-56
5.37054e-56
-2.72909e-55
-2.1059e-55
1.36915e-54
8.21652e-55
-6.76972e-54
-3.25809e-54
3.311e-53
1.35539e-53
-1.60562e-52
-6.12584e-53
7.72933e-52
3.06478e-52
-3.69403e-51
-1.67732e-51
1.75097e-50
9.71533e-51
-8.21347e-50
-5.75739e-50
3.79965e-49
3.40826e-49
-1.72481e-48
-1.98729e-48
7.62758e-48
1.13244e-47
-3.25125e-47
-6.27726e-47
1.31313e-46
3.37303e-46
-4.87046e-46
-1.75076e-45
1.54413e-45
8.73842e-45
-3.22107e-45
-4.16728e-44
-5.47229e-45
1.88016e-43
1.23961e-43
-7.89429e-43
-1.01132e-42
2.99042e-42
6.39655e-42
-9.50742e-42
-3.5007e-41
1.94377e-41
1.70594e-40
3.35463e-41
-7.38512e-40
-7.01595e-40
2.74992e-39
5.28187e-39
-7.92673e-39
-2.99183e-38
9.64136e-39
1.40098e-37
8.18732e-38
-5.39895e-37
-8.58242e-37
1.54379e-36
5.22774e-36
-1.55222e-36
-2.42153e-35
-1.81155e-35
8.552e-35
1.69003e-34
-1.83898e-34
-9.26849e-34
-2.55633e-34
3.65852e-33
5.34106e-33
-9.20469e-33
-3.36651e-32
-2.26207e-33
1.3896e-31
1.84649e-31
-3.45958e-31
-1.22132e-30
-1.68176e-31
4.85435e-30
7.28763e-30
-1.00522e-29
-4.41133e-29
-2.1064e-29
1.50905e-28
3.05702e-28
-1.65964e-28
-1.49311e-27
-1.58304e-27
3.62672e-27
1.20199e-26
4.24617e-27
-4.15699e-26
-8.38491e-26
2.97839e-26
3.83287e-25
5.19685e-25
-6.44446e-25
-3.15178e-24
-2.88622e-24
7.36487e-24
2.42719e-23
1.43854e-23
-6.87259e-23
-1.80717e-22
-6.5395e-23
5.76764e-22
1.33192e-21
3.04905e-22
-4.5156e-21
-9.87348e-21
-2.05126e-21
3.34101e-20
7.40683e-20
2.24846e-20
-2.32778e-19
-5.59195e-19
-2.82605e-19
1.49324e-18
4.17787e-18
3.31537e-18
-8.31782e-18
-3.00655e-17
-3.48003e-17
3.34804e-17
2.00319e-16
3.24398e-16
4.77999e-18
-1.15554e-15
-2.65088e-15
-1.9653e-15
4.87738e-15
1.83459e-14
2.5925e-14
-3.08892e-15
-9.82091e-14
-2.25477e-13
-2.05015e-13
2.80317e-13
1.39659e-12
2.49652e-12
1.44995e-12
-4.86425e-12
-1.72293e-11
-2.74638e-11
-1.24858e-11
5.9769e-11
1.97111e-10
3.17598e-10
1.85357e-10
-5.53691e-10
-2.08619e-09
-3.80197e-09
-3.51317e-09
2.71923e-09
1.87475e-08
4.29882e-08
5.95679e-08
3.00851e-08
-1.03264e-07
-3.86098e-07
-7.75322e-07
-1.01893e-06
-5.38047e-07
1.57039e-06
6.21113e-06
1.34105e-05
2.07286e-05
2.11275e-05
1.08135e-06
-5.93654e-05
-0.000181811
-0.000376322
-0.000616028
-0.000796745
-0.000681685
0.000164146
0.0024395
0.00715639
0.0156537
0.0295555
0.0506589
0.0807503
0.12136
0.173488
0.23734
0.312136
0.396022
0.486141
0.578847
0.670067
0.75574
0.832275
0.89695
0.948189
0.985661
1.01021
1.02364
1.02833
1.02694
1.02196
1.01555
1.00926
1.00408
1.00043
0.998324
0.997494
0.997547
0.998084
0.99878
0.999415
0.99988
1.00015
1.00025
1.00024
1.00018
1.0001
1.00004
0.999995
0.999976
0.999973
0.999979
0.999988
0.999996
1
1
1
1
1
1
1
1
1
1
1
1
1
1
1
1
1
1
1
1
1
1
1
1
1
1
1
1
1
1
1
1
1
1
1
1
1
1
1
1
0.999998
0.999994
0.999987
0.999979
0.999979
0.999999
1.00006
1.00018
1.00038
1.00062
1.0008
1.00068
0.999836
0.99756
0.992844
0.984346
0.970445
0.949341
0.91925
0.87864
0.826512
0.76266
0.687864
0.603978
0.513859
0.421153
0.329933
0.24426
0.167725
0.10305
0.0518112
0.014339
-0.0102129
-0.0236359
-0.0283316
-0.0269351
-0.0219641
-0.0155465
-0.009258
-0.00407511
-0.000428465
0.00167617
0.00250605
0.00245341
0.00191619
0.00122034
0.000584522
0.000119619
-0.000149521
-0.000252793
-0.000244428
-0.00017985
-0.000102126
-3.72133e-05
4.54815e-06
2.37521e-05
2.66061e-05
2.0619e-05
1.19634e-05
4.4477e-06
-3.72349e-07
-2.50813e-06
-2.74546e-06
-2.02169e-06
-1.07057e-06
-3.07223e-07
1.32132e-07
2.85521e-07
2.60946e-07
1.64729e-07
6.82475e-08
3.64566e-09
-2.53441e-08
-2.90387e-08
-2.05615e-08
-9.81003e-09
-1.85401e-09
2.11035e-09
2.9867e-09
2.26169e-09
1.13807e-09
2.62974e-10
-1.868e-10
-2.96231e-10
-2.27393e-10
-1.13357e-10
-2.49974e-11
1.91303e-11
2.8737e-11
2.11122e-11
9.81555e-12
1.59528e-12
-2.155e-12
-2.69117e-12
-1.79327e-12
-7.22939e-13
-2.85843e-14
2.38373e-13
2.36055e-13
1.35744e-13
4.19624e-14
-9.62114e-15
-2.39214e-14
-1.86807e-14
-8.72259e-15
-1.41636e-15
1.75935e-15
2.08757e-15
1.2753e-15
4.27239e-16
-5.45172e-17
-1.94023e-16
-1.53462e-16
-6.99833e-17
-9.99908e-18
1.4608e-17
1.60367e-17
9.07419e-18
2.55964e-18
-7.68612e-19
-1.49074e-18
-1.02107e-18
-3.85698e-19
1.71973e-21
1.2458e-19
1.03817e-19
4.72138e-20
6.55104e-21
-9.36998e-21
-9.76391e-21
-5.10518e-21
-1.15657e-21
6.2835e-22
8.63557e-22
5.05984e-22
1.45086e-22
-3.65436e-23
-7.27883e-23
-4.69352e-23
-1.54834e-23
1.70866e-24
5.9164e-24
4.12981e-24
1.4888e-24
-4.71918e-26
-4.6874e-25
-3.47876e-25
-1.32383e-25
-1.63795e-27
3.65346e-26
2.82297e-26
1.10344e-26
3.6789e-28
-2.8207e-27
-2.21556e-27
-8.68268e-28
-3.14269e-29
2.16467e-28
1.68487e-28
6.46851e-29
1.46563e-30
-1.65055e-29
-1.24155e-29
-4.56001e-30
3.60581e-32
1.2456e-30
8.85038e-31
3.02961e-31
-1.7831e-32
-9.24571e-32
-6.08391e-32
-1.88072e-32
2.59918e-33
6.7009e-33
4.01427e-33
1.07319e-33
-2.83776e-34
-4.70659e-34
-2.52629e-34
-5.44614e-35
2.6474e-35
3.18053e-35
1.50331e-35
2.26406e-36
-2.20965e-36
-2.05305e-36
-8.35254e-37
-5.46289e-38
1.68438e-37
1.25637e-37
4.245e-38
-2.38049e-39
-1.18422e-38
-7.22353e-39
-1.8969e-39
4.87871e-40
7.70863e-40
3.85474e-40
6.73741e-41
-4.74457e-41
-4.64416e-41
-1.87271e-41
-1.14922e-42
3.62719e-42
2.57781e-42
7.98566e-43
-8.84818e-44
-2.39383e-43
-1.30495e-43
-2.73057e-44
1.25896e-44
1.40522e-44
5.90358e-45
4.99714e-46
-1.01614e-45
-7.39129e-46
-2.28338e-46
2.41707e-47
6.54023e-47
3.45858e-47
6.65274e-48
-3.55287e-48
-3.60661e-48
-1.4026e-48
-6.0373e-50
2.67736e-49
1.73373e-49
4.5878e-50
-9.89802e-51
-1.56987e-50
-7.18816e-51
-9.07788e-52
9.89307e-52
7.73306e-52
2.4477e-52
-1.93814e-53
-6.25695e-53
-3.23384e-53
-5.73026e-54
3.39717e-54
3.14592e-54
1.10961e-54
-1.01555e-56
-2.33369e-55
-1.31194e-55
-2.71557e-56
1.12367e-56
1.18712e-56
4.44016e-57
1.12027e-58
-8.2889e-58
-4.87466e-58
-1.07267e-58
3.71847e-59
4.2003e-59
1.59695e-59
5.57109e-61
-2.83536e-60
-1.67265e-60
-3.65077e-61
1.26109e-61
1.40065e-61
5.20052e-62
1.22457e-63
-9.36887e-63
-5.31406e-63
-1.07605e-63
4.36245e-64
4.40079e-64
1.53273e-64
-1.40256e-66
-2.97503e-65
-1.55949e-65
-2.69587e-66
1.496e-66
1.2964e-66
4.0545e-67
-2.76573e-68
-8.9794e-68
-4.19722e-68
-5.38485e-69
4.91604e-69
3.57238e-69
5.91247e-70
)
;

boundaryField
{
    sides
    {
        type            zeroGradient;
    }
    empty
    {
        type            empty;
    }
}


// ************************************************************************* //
