/*--------------------------------*- C++ -*----------------------------------*\
| =========                 |                                                 |
| \\      /  F ield         | OpenFOAM: The Open Source CFD Toolbox           |
|  \\    /   O peration     | Version:  2312                                  |
|   \\  /    A nd           | Website:  www.openfoam.com                      |
|    \\/     M anipulation  |                                                 |
\*---------------------------------------------------------------------------*/
FoamFile
{
    version     2.0;
    format      ascii;
    arch        "LSB;label=32;scalar=64";
    class       volScalarField;
    location    "4.9";
    object      T;
}
// * * * * * * * * * * * * * * * * * * * * * * * * * * * * * * * * * * * * * //

dimensions      [0 0 0 1 0 0 0];

internalField   nonuniform List<scalar> 
1000
(
0
0
0
0
0
0
0
0
0
0
0
0
0
0
0
0
0
0
0
0
0
0
0
0
0
0
0
0
0
0
0
0
0
0
0
0
0
0
0
0
0
0
0
0
0
0
0
0
0
0
0
0
0
0
0
0
0
0
0
0
0
0
0
0
0
0
0
0
0
0
0
0
0
0
0
0
0
0
0
0
0
0
0
0
0
0
0
0
0
0
0
0
0
0
0
0
0
0
0
0
0
0
0
0
0
0
0
0
0
0
0
0
0
0
0
0
0
0
0
0
0
0
0
0
0
0
0
0
0
0
0
0
0
0
0
0
0
0
0
0
0
0
0
0
0
0
0
0
0
0
0
0
0
0
0
0
0
0
0
0
0
0
0
0
0
0
0
0
0
0
0
0
0
-4.94066e-324
2.96439e-323
-4.94066e-324
2.96439e-323
-4.94066e-324
2.96439e-323
-4.94066e-324
2.96439e-323
-4.94066e-324
2.96439e-323
-4.94066e-324
2.96439e-323
-4.94066e-324
2.96439e-323
-4.94066e-324
2.96439e-323
-4.94066e-324
2.96439e-323
-4.94066e-324
2.96439e-323
-4.94066e-324
2.96439e-323
-4.94066e-324
2.96439e-323
-4.94066e-324
2.96439e-323
-4.94066e-324
2.96439e-323
-4.94066e-324
2.96439e-323
-4.94066e-324
2.96439e-323
-4.94066e-324
2.96439e-323
-4.94066e-324
2.96439e-323
-4.94066e-324
2.96439e-323
-4.94066e-324
2.96439e-323
-4.94066e-324
2.96439e-323
-4.94066e-324
2.96439e-323
-4.94066e-324
2.96439e-323
-4.94066e-324
2.96439e-323
-4.94066e-324
2.96439e-323
-4.94066e-324
2.96439e-323
-4.94066e-324
2.96439e-323
-4.94066e-324
2.96439e-323
-4.94066e-324
2.96439e-323
-4.94066e-324
2.96439e-323
-4.94066e-324
2.96439e-323
-4.94066e-324
2.96439e-323
-4.94066e-324
2.96439e-323
-4.94066e-324
2.96439e-323
-4.94066e-324
2.96439e-323
-4.94066e-324
2.96439e-323
-4.94066e-324
2.96439e-323
-4.94066e-324
2.96439e-323
-4.94066e-324
2.96439e-323
-4.94066e-324
2.96439e-323
-4.94066e-324
2.96439e-323
-4.94066e-324
2.96439e-323
-4.94066e-324
9.88131e-324
2.96439e-323
5.43472e-323
7.41098e-323
9.88131e-323
1.18576e-322
1.43279e-322
1.63042e-322
1.87745e-322
2.12448e-322
2.37152e-322
2.61855e-322
2.86558e-322
3.06321e-322
3.26083e-322
3.45846e-322
3.65609e-322
4.15015e-322
4.00193e-322
3.7549e-322
3.55727e-322
3.35965e-322
3.16202e-322
2.96439e-322
2.76677e-322
2.51973e-322
2.2727e-322
2.02567e-322
1.77864e-322
1.5316e-322
1.33398e-322
1.08694e-322
8.89318e-323
6.42285e-323
4.44659e-323
1.97626e-323
-4.94066e-324
-2.96439e-323
-4.94066e-323
-7.41098e-323
-9.38725e-323
-1.13635e-322
-1.38338e-322
-1.63042e-322
-1.87745e-322
-2.07508e-322
-2.2727e-322
-2.51973e-322
-2.71736e-322
-2.96439e-322
-3.16202e-322
-3.40905e-322
-3.65609e-322
-3.85371e-322
-4.05134e-322
-4.24896e-322
-4.496e-322
-4.74303e-322
-4.99006e-322
-5.2371e-322
-5.48413e-322
-5.73116e-322
-5.97819e-322
-6.17582e-322
-6.42285e-322
-6.62048e-322
-6.81811e-322
-7.01573e-322
-7.21336e-322
-7.46039e-322
-7.65802e-322
-7.85564e-322
-8.10268e-322
-8.3003e-322
-8.54734e-322
-8.74496e-322
-1.07212e-321
-6.24499e-321
-1.26323e-319
-2.71891e-318
-5.59599e-317
-7.27893e-316
-8.39395e-316
7.59078e-315
1.72021e-313
2.82199e-312
4.26301e-311
6.09193e-310
8.27811e-309
1.07196e-307
1.32482e-306
1.56461e-305
1.76756e-304
1.91286e-303
1.99058e-302
2.01368e-301
2.03016e-300
2.1318e-299
2.47292e-298
3.33362e-297
5.27975e-296
9.47923e-295
1.82562e-293
3.58856e-292
6.96828e-291
1.31148e-289
2.36971e-288
4.09074e-287
6.74397e-286
1.06092e-284
1.58991e-283
2.26982e-282
3.10375e-281
4.08759e-280
4.18079e-279
6.63181e-279
-1.54885e-278
-3.53442e-277
-4.30495e-276
-4.78877e-275
-5.28805e-274
-6.06872e-273
-7.51986e-272
-1.03268e-270
-1.58618e-269
-2.6978e-268
-4.94707e-267
-9.4457e-266
-1.81988e-264
-3.45697e-263
-6.388e-262
-1.13625e-260
-1.93979e-259
-3.16679e-258
-4.93935e-257
-7.35535e-256
-1.04569e-254
-1.42766e-253
-1.80131e-252
-5.30725e-252
1.59087e-252
1.32633e-250
1.75705e-249
1.99646e-248
2.14265e-247
2.20981e-246
2.20313e-245
2.13645e-244
2.03205e-243
1.93387e-242
1.97895e-241
2.50026e-240
4.20182e-239
8.61603e-238
1.89868e-236
4.17427e-235
8.86864e-234
1.79632e-232
3.45858e-231
6.32152e-230
1.09889e-228
1.80931e-227
2.8438e-226
4.35398e-225
3.59782e-224
3.46832e-224
-3.1907e-223
-5.70571e-222
-7.4326e-221
-8.95916e-220
-1.03172e-218
-1.14278e-217
-1.22106e-216
-1.26228e-215
-1.26766e-214
-1.24485e-213
-1.20785e-212
-1.17575e-211
-1.16967e-210
-1.20882e-209
-1.30815e-208
-1.47943e-207
-1.73571e-206
-2.09483e-205
-2.57948e-204
-3.21249e-203
-4.01528e-202
-5.02569e-201
-6.33281e-200
-8.10205e-199
-1.0566e-197
-1.39528e-196
-1.84466e-195
-2.39082e-194
-3.03153e-193
-2.99055e-192
-4.51552e-192
1.23582e-191
2.96221e-190
4.27707e-189
5.89498e-188
7.89303e-187
1.00638e-185
1.20028e-184
1.32203e-183
1.35315e-182
1.37798e-181
1.59723e-180
2.27867e-179
3.73939e-178
6.33722e-177
1.04009e-175
1.60629e-174
2.31094e-173
3.09512e-172
3.83428e-171
4.41683e-170
4.70294e-169
4.27088e-168
9.65215e-168
-1.1376e-168
-1.41056e-166
-6.91865e-166
-1.34651e-165
-1.91749e-165
-5.36968e-165
-3.98007e-164
-3.20243e-163
-2.29407e-162
-1.4931e-161
-9.03244e-161
-5.13223e-160
-2.70622e-159
-7.38634e-159
-6.48579e-159
1.42148e-158
1.53021e-157
9.35471e-157
3.53736e-156
3.57353e-156
-8.18687e-156
-1.36916e-154
-1.3288e-153
-1.17693e-152
-9.82739e-152
-7.70276e-151
-5.65037e-150
-3.93733e-149
-2.76424e-148
-2.16689e-147
-2.03753e-146
-2.23676e-145
-2.65642e-144
-3.23375e-143
-3.92155e-142
-4.64078e-141
-5.26383e-140
-5.51092e-139
-1.97191e-138
-9.34321e-139
1.96073e-137
1.32354e-136
1.35214e-136
-4.54209e-136
-5.70144e-135
-3.91594e-134
-2.22632e-133
-1.0689e-132
-2.04926e-132
-1.07912e-132
1.21164e-131
1.35744e-130
1.30068e-129
1.25508e-128
1.10095e-127
7.85504e-127
4.31592e-126
1.76197e-125
5.35784e-125
1.5022e-124
6.24487e-124
4.55464e-123
4.16122e-122
3.93015e-121
2.98349e-120
4.60824e-120
-5.7396e-120
-1.39357e-118
-1.31533e-117
-3.05734e-117
2.84855e-118
4.94815e-116
5.07335e-115
1.49754e-114
5.22766e-115
-1.61616e-113
-1.77418e-112
-1.27234e-111
-1.95149e-111
1.83914e-111
4.73163e-110
4.40164e-109
1.60878e-108
1.15002e-108
-9.85985e-108
-1.13323e-106
-9.3645e-106
-3.20352e-105
-2.28752e-105
1.8368e-104
2.06149e-103
1.35782e-102
2.00599e-102
-1.45464e-102
-3.96923e-101
-3.43195e-100
-2.40426e-99
-5.7227e-99
-2.25717e-99
4.62615e-98
4.39486e-97
3.19732e-96
1.12759e-95
9.5989e-96
-4.14884e-95
-4.75534e-94
-3.51906e-93
-1.81913e-92
-2.32862e-92
1.83164e-92
4.23861e-91
3.30005e-90
2.05532e-89
4.54622e-89
2.12718e-89
-2.91985e-88
-2.5958e-87
-1.7311e-86
-1.06849e-85
-6.39956e-85
-3.77225e-84
-2.19873e-83
-1.26884e-82
-7.26118e-82
-4.12095e-81
-2.31542e-80
-1.29024e-79
-6.54691e-79
-1.27678e-78
-6.35187e-79
6.71844e-78
5.54622e-77
3.34332e-76
1.84704e-75
9.85572e-75
5.16541e-74
2.67497e-73
1.37182e-72
6.97296e-72
3.51422e-71
1.7563e-70
8.70481e-70
4.27888e-69
2.08606e-68
1.0087e-67
4.83773e-67
2.30135e-66
1.0859e-65
5.08253e-65
2.35971e-64
1.08676e-63
4.96499e-63
2.25019e-62
1.01169e-61
4.51241e-61
1.9967e-60
8.76538e-60
3.81758e-59
1.64958e-58
7.07187e-58
3.00801e-57
1.26945e-56
5.31557e-56
2.20846e-55
9.10421e-55
3.72404e-54
1.51152e-53
6.08756e-53
2.43284e-52
9.64778e-52
3.79658e-51
1.48257e-50
5.74512e-50
2.20928e-49
8.43095e-49
3.19286e-48
1.19996e-47
4.47549e-47
1.65656e-46
6.08515e-46
2.21838e-45
8.02615e-45
2.88196e-44
1.02702e-43
3.63238e-43
1.27503e-42
4.44197e-42
1.53588e-41
5.2707e-41
1.7952e-40
6.06865e-40
2.03615e-39
6.78058e-39
2.24113e-38
7.35211e-38
2.39389e-37
7.73647e-37
2.4816e-36
7.90082e-36
2.49669e-35
7.83087e-35
2.43787e-34
7.53294e-34
2.31033e-33
7.033e-33
2.12502e-32
6.37295e-32
1.89703e-31
5.60483e-31
1.64364e-30
4.78415e-30
1.38215e-29
3.96333e-29
1.12801e-28
3.18654e-28
8.93453e-28
2.4864e-27
6.86772e-27
1.88277e-26
5.12297e-26
1.38351e-25
3.70833e-25
9.86516e-25
2.6047e-24
6.82554e-24
1.77516e-23
4.58198e-23
1.17377e-22
2.98415e-22
7.52942e-22
1.8854e-21
4.68531e-21
1.15548e-20
2.82794e-20
6.86839e-20
1.65543e-19
3.95944e-19
9.39756e-19
2.21334e-18
5.17281e-18
1.19962e-17
2.76051e-17
6.30313e-17
1.42803e-16
3.21015e-16
7.15992e-16
1.58445e-15
3.47878e-15
7.57779e-15
1.63763e-14
3.51105e-14
7.46781e-14
1.5757e-13
3.29814e-13
6.84802e-13
1.41042e-12
2.88143e-12
5.83889e-12
1.17355e-11
2.33941e-11
4.62519e-11
9.06898e-11
1.7635e-10
3.40068e-10
6.50297e-10
1.23309e-09
2.31847e-09
4.32224e-09
7.98912e-09
1.46404e-08
2.65982e-08
4.7904e-08
8.55251e-08
1.51354e-07
2.65491e-07
4.61569e-07
7.953e-07
1.35803e-06
2.29795e-06
3.85302e-06
6.40121e-06
1.05365e-05
1.71819e-05
2.7756e-05
4.44141e-05
7.03935e-05
0.000110498
0.000171774
0.000264423
0.000403036
0.000608209
0.000908631
0.00134371
0.00196682
0.0028492
0.00408444
0.0057936
0.00813062
0.0112878
0.0155008
0.0210528
0.0282763
0.0375526
0.0493071
0.0639996
0.082109
0.104111
0.13045
0.161505
0.197547
0.238704
0.284916
0.335902
0.391135
0.449834
0.510974
0.573316
0.635462
0.695933
0.753257
0.806072
0.853225
0.893859
0.927475
0.953962
0.973586
0.986934
0.994877
0.998625
0.999799
0.999988
1
1
1
1
1
1
1
1
1
1
1
1
1
1
1
1
1
1
1
1
1
1
1
1
1
1
1
1
1
1
1
1
1
1
1
1
1
1
1
1
1
1
1
1
1
0.999999
0.999999
0.999998
0.999996
0.999994
0.999989
0.999983
0.999972
0.999956
0.99993
0.999889
0.999828
0.999735
0.999597
0.999391
0.999091
0.998655
0.998032
0.997149
0.995912
0.994202
0.991864
0.988705
0.984489
0.978934
0.971707
0.962427
0.950667
0.935969
0.917853
0.895844
0.869496
0.838434
0.802383
0.761217
0.714997
0.664005
0.608766
0.550063
0.488922
0.426581
0.364438
0.303972
0.246656
0.19385
0.146708
0.106086
0.0724812
0.0460047
0.0263914
0.013052
0.00511546
0.00137236
0.000200327
1.17643e-05
2.00444e-07
7.34278e-10
4.51731e-13
4.33108e-17
3.89025e-21
3.47607e-25
3.07908e-29
2.70401e-33
2.35798e-37
2.04614e-41
1.77051e-45
1.53034e-49
1.32298e-53
1.14474e-57
9.91662e-62
8.59979e-66
7.46388e-70
6.48116e-74
5.62888e-78
4.88855e-82
4.24493e-86
3.68531e-90
3.19888e-94
2.77627e-98
2.40929e-102
2.09075e-106
1.81432e-110
1.57449e-114
1.3664e-118
1.18585e-122
1.02917e-126
8.93212e-131
7.75214e-135
6.72802e-139
5.83917e-143
5.0677e-147
4.39812e-151
3.817e-155
3.31264e-159
2.87492e-163
2.49503e-167
2.16534e-171
1.87922e-175
1.6309e-179
1.41539e-183
1.22836e-187
1.06604e-191
9.25164e-196
8.02906e-200
6.96803e-204
6.04721e-208
5.24805e-212
4.5545e-216
3.9526e-220
3.43024e-224
2.97691e-228
2.58348e-232
2.24204e-236
1.94573e-240
1.68857e-244
1.4654e-248
1.27172e-252
1.10364e-256
9.5777e-261
8.31179e-265
7.21319e-269
6.25978e-273
5.43238e-277
4.71434e-281
4.0912e-285
3.55042e-289
3.08111e-293
2.67383e-297
2.32039e-301
2.01366e-305
1.74748e-309
1.51648e-313
1.31601e-317
1.12647e-321
0
0
0
0
0
0
0
0
0
0
0
0
)
;

boundaryField
{
    sides
    {
        type            zeroGradient;
    }
    empty
    {
        type            empty;
    }
}


// ************************************************************************* //
