/*--------------------------------*- C++ -*----------------------------------*\
| =========                 |                                                 |
| \\      /  F ield         | OpenFOAM: The Open Source CFD Toolbox           |
|  \\    /   O peration     | Version:  2312                                  |
|   \\  /    A nd           | Website:  www.openfoam.com                      |
|    \\/     M anipulation  |                                                 |
\*---------------------------------------------------------------------------*/
FoamFile
{
    version     2.0;
    format      ascii;
    arch        "LSB;label=32;scalar=64";
    class       volScalarField;
    location    "2.7";
    object      T;
}
// * * * * * * * * * * * * * * * * * * * * * * * * * * * * * * * * * * * * * //

dimensions      [0 0 0 1 0 0 0];

internalField   nonuniform List<scalar> 
1000
(
0
0
0
0
0
0
0
0
0
0
0
0
0
0
0
0
0
0
0
0
0
0
0
0
0
0
0
0
0
0
0
0
0
0
0
0
0
0
0
0
0
0
0
0
0
0
0
0
0
0
0
0
0
0
0
0
0
0
0
0
0
0
0
0
0
0
0
0
0
0
0
0
0
0
0
0
0
0
0
0
0
0
0
0
0
0
0
0
0
0
0
0
0
0
0
0
0
0
0
0
0
0
0
0
0
0
0
0
0
0
0
0
0
0
0
0
0
0
0
0
0
0
0
0
0
0
0
0
0
0
0
0
0
0
0
0
0
0
0
0
0
0
0
0
0
0
0
0
0
0
0
0
0
0
0
0
0
0
0
0
0
0
0
0
0
0
0
0
0
0
0
0
0
0
0
0
0
0
0
0
0
0
0
0
0
0
0
0
0
0
0
0
0
0
0
0
0
0
0
0
0
0
0
0
0
0
0
0
0
0
0
0
0
0
0
0
0
0
0
0
0
0
0
0
0
0
0
0
0
0
0
0
0
0
0
0
0
0
0
0
0
0
0
0
0
0
0
0
2.47033e-323
5.25192e-321
5.25429e-319
5.19002e-317
5.10215e-315
4.99229e-313
4.86181e-311
4.71233e-309
4.54573e-307
4.36404e-305
4.16947e-303
3.96431e-301
3.75091e-299
3.53165e-297
3.30886e-295
3.08479e-293
2.86159e-291
2.64127e-289
2.42565e-287
2.21636e-285
2.01482e-283
1.82224e-281
1.63958e-279
1.46759e-277
1.30681e-275
1.15754e-273
1.01992e-271
8.93892e-270
7.79261e-268
6.75684e-266
5.82712e-264
4.99802e-262
4.26346e-260
3.61686e-258
3.05135e-256
2.55992e-254
2.1356e-252
1.77157e-250
1.46126e-248
1.19841e-246
9.77197e-245
7.92207e-243
6.38497e-241
5.11595e-239
4.07497e-237
3.22652e-235
2.53946e-233
1.98667e-231
1.5448e-229
1.19388e-227
9.17004e-226
6.99986e-224
5.31e-222
4.00283e-220
2.9984e-218
2.23172e-216
1.65045e-214
1.2127e-212
8.85263e-211
6.42009e-209
4.62528e-207
3.3101e-205
2.35304e-203
1.66143e-201
1.16514e-199
8.11502e-198
5.61305e-196
3.85551e-194
2.62975e-192
1.78104e-190
1.19766e-188
7.99601e-187
5.29986e-185
3.48726e-183
2.27775e-181
1.47674e-179
9.50277e-178
6.06904e-176
3.84668e-174
2.41946e-172
1.51005e-170
9.35141e-169
5.74571e-167
3.50238e-165
2.1179e-163
1.27039e-161
7.55846e-160
4.46023e-158
2.61023e-156
1.51483e-154
8.71729e-153
4.97389e-151
2.81367e-149
1.5779e-147
8.77153e-146
4.83313e-144
2.63936e-142
1.4284e-140
7.6603e-139
4.07046e-137
2.14291e-135
1.1176e-133
5.77364e-132
2.95428e-130
1.49709e-128
7.51272e-127
3.73294e-125
1.83639e-123
8.9432e-122
4.31108e-120
2.05681e-118
9.71114e-117
4.53692e-115
2.09708e-113
9.58912e-112
4.33708e-110
1.94006e-108
8.58177e-107
3.75337e-105
1.62289e-103
6.93621e-102
2.92991e-100
1.22299e-98
5.04383e-97
2.05495e-95
8.26944e-94
3.28634e-92
1.28956e-90
4.99553e-89
1.91013e-87
7.20779e-86
2.68362e-84
9.85678e-83
3.57074e-81
1.27557e-79
4.49243e-78
1.55954e-76
5.33524e-75
1.79827e-73
5.97029e-72
1.95197e-70
6.28316e-69
1.99067e-67
6.20611e-66
1.90336e-64
5.74087e-63
1.70241e-61
4.96189e-60
1.42099e-58
3.99715e-57
1.10403e-55
2.99316e-54
7.96226e-53
2.07748e-51
5.31448e-50
1.33238e-48
3.2723e-47
7.86943e-46
1.85223e-44
4.26479e-43
9.60133e-42
2.11234e-40
4.53895e-39
9.5203e-38
1.94798e-36
3.88576e-35
7.55148e-34
1.42871e-32
2.62954e-31
4.70435e-30
8.17402e-29
1.37816e-27
2.25259e-26
3.56569e-25
5.46034e-24
8.08e-23
1.15395e-21
1.58846e-20
2.10457e-19
2.67972e-18
3.2737e-17
3.83034e-16
4.28392e-15
4.57018e-14
4.63988e-13
4.47153e-12
4.07906e-11
3.51127e-10
2.84222e-09
2.15502e-08
1.52384e-07
9.99899e-07
6.05393e-06
3.36005e-05
0.000169669
0.000772665
0.00314085
0.0112603
0.035111
0.0937289
0.210688
0.393187
0.606813
0.789312
0.906271
0.964889
0.98874
0.996859
0.999227
0.99983
0.999966
0.999994
0.999999
1
1
1
1
1
1
1
1
1
1
1
1
1
1
1
1
1
1
1
1
1
1
1
1
1
1
1
1
1
1
1
1
1
1
1
1
1
1
1
1
1
1
1
1
1
1
1
1
1
1
1
1
1
1
1
1
1
1
1
1
1
1
1
1
1
1
1
1
1
1
1
1
1
1
1
1
1
1
0.999999
0.999994
0.999966
0.99983
0.999227
0.996859
0.98874
0.964889
0.906271
0.789312
0.606813
0.393187
0.210688
0.0937289
0.035111
0.0112603
0.00314085
0.000772665
0.000169669
3.36005e-05
6.05393e-06
9.99899e-07
1.52384e-07
2.15502e-08
2.84222e-09
3.51127e-10
4.07906e-11
4.47153e-12
4.63988e-13
4.57018e-14
4.28392e-15
3.83034e-16
3.2737e-17
2.67972e-18
2.10457e-19
1.58846e-20
1.15395e-21
8.08e-23
5.46034e-24
3.56569e-25
2.25259e-26
1.37816e-27
8.17402e-29
4.70435e-30
2.62954e-31
1.42871e-32
7.55148e-34
3.88576e-35
1.94798e-36
9.5203e-38
4.53895e-39
2.11234e-40
9.60133e-42
4.26479e-43
1.85223e-44
7.86943e-46
3.2723e-47
1.33238e-48
5.31448e-50
2.07748e-51
7.96226e-53
2.99316e-54
1.10403e-55
3.99715e-57
1.42099e-58
4.96189e-60
1.70241e-61
5.74087e-63
1.90336e-64
6.20611e-66
1.99067e-67
6.28316e-69
1.95197e-70
5.97029e-72
1.79827e-73
5.33524e-75
1.55954e-76
4.49243e-78
1.27557e-79
3.57074e-81
9.85678e-83
2.68362e-84
7.20779e-86
1.91013e-87
4.99553e-89
1.28956e-90
3.28634e-92
8.26944e-94
2.05495e-95
5.04383e-97
1.22299e-98
2.92991e-100
6.93621e-102
1.62289e-103
3.75337e-105
8.58177e-107
1.94006e-108
4.33708e-110
9.58912e-112
2.09708e-113
4.53692e-115
9.71114e-117
2.05681e-118
4.31108e-120
8.9432e-122
1.83639e-123
3.73294e-125
7.51272e-127
1.49709e-128
2.95428e-130
5.77364e-132
1.1176e-133
2.14291e-135
4.07046e-137
7.6603e-139
1.4284e-140
2.63936e-142
4.83313e-144
8.77153e-146
1.5779e-147
2.81367e-149
4.97389e-151
8.71729e-153
1.51483e-154
2.61023e-156
4.46023e-158
7.55846e-160
1.27039e-161
2.1179e-163
3.50238e-165
5.74571e-167
9.35141e-169
1.51005e-170
2.41946e-172
3.84668e-174
6.06904e-176
9.50277e-178
1.47674e-179
2.27775e-181
3.48726e-183
5.29986e-185
7.99601e-187
1.19766e-188
1.78104e-190
2.62975e-192
3.85551e-194
5.61305e-196
8.11502e-198
1.16514e-199
1.66143e-201
2.35304e-203
3.3101e-205
4.62528e-207
6.42009e-209
8.85263e-211
1.2127e-212
1.65045e-214
2.23172e-216
2.9984e-218
4.00283e-220
5.31e-222
6.99986e-224
9.17004e-226
1.19388e-227
1.5448e-229
1.98667e-231
2.53946e-233
3.22652e-235
4.07497e-237
5.11595e-239
6.38497e-241
7.92207e-243
9.77197e-245
1.19841e-246
1.46126e-248
1.77157e-250
2.1356e-252
2.55992e-254
3.05135e-256
3.61686e-258
4.26346e-260
4.99802e-262
5.82712e-264
6.75684e-266
7.79261e-268
8.93892e-270
1.01992e-271
1.15754e-273
1.30681e-275
1.46759e-277
1.63958e-279
1.82224e-281
2.01482e-283
2.21636e-285
2.42565e-287
2.64127e-289
2.86159e-291
3.08479e-293
3.30886e-295
3.53165e-297
3.75091e-299
3.96431e-301
4.16947e-303
4.36404e-305
4.54573e-307
4.71233e-309
4.86181e-311
4.99229e-313
5.10215e-315
5.19003e-317
5.25429e-319
5.25192e-321
2.47033e-323
0
0
0
0
0
0
0
0
0
0
0
0
0
0
0
0
0
0
0
0
0
0
0
0
0
0
0
0
0
0
0
0
0
0
0
0
0
0
0
0
0
0
0
0
0
0
0
0
0
0
0
0
0
0
0
0
0
0
0
0
0
0
0
0
0
0
0
0
0
0
0
0
0
0
0
0
0
0
0
0
0
0
0
0
0
0
0
0
0
0
0
0
0
0
0
0
0
0
0
0
0
0
0
0
0
0
0
0
0
0
0
0
0
0
0
0
0
0
0
0
0
0
0
0
0
0
0
0
0
0
0
0
0
0
0
0
0
0
0
0
0
0
0
0
0
0
0
0
0
0
0
0
0
0
0
0
0
0
0
0
0
0
0
0
0
0
0
0
0
0
0
0
0
0
0
0
0
0
0
0
0
0
0
0
0
0
0
0
0
0
0
0
0
0
0
0
0
0
0
0
0
0
0
0
0
0
0
0
0
0
0
0
0
0
0
0
0
0
0
0
0
0
0
0
0
0
0
0
0
0
0
0
0
0
0
0
0
0
0
0
0
0
0
0
0
0
0
0
)
;

boundaryField
{
    sides
    {
        type            zeroGradient;
    }
    empty
    {
        type            empty;
    }
}


// ************************************************************************* //
