/*--------------------------------*- C++ -*----------------------------------*\
| =========                 |                                                 |
| \\      /  F ield         | OpenFOAM: The Open Source CFD Toolbox           |
|  \\    /   O peration     | Version:  2312                                  |
|   \\  /    A nd           | Website:  www.openfoam.com                      |
|    \\/     M anipulation  |                                                 |
\*---------------------------------------------------------------------------*/
FoamFile
{
    version     2.0;
    format      ascii;
    arch        "LSB;label=32;scalar=64";
    class       volScalarField;
    location    "2.9";
    object      T;
}
// * * * * * * * * * * * * * * * * * * * * * * * * * * * * * * * * * * * * * //

dimensions      [0 0 0 1 0 0 0];

internalField   nonuniform List<scalar> 
1000
(
1.76153e-33
-2.44126e-33
5.37378e-33
-1.10335e-32
2.27981e-32
-4.69396e-32
9.64308e-32
-1.97626e-31
4.04043e-31
-8.24068e-31
1.67666e-30
-3.40305e-30
6.89015e-30
-1.39162e-29
2.80375e-29
-5.63482e-29
1.12963e-28
-2.25895e-28
4.5059e-28
-8.96514e-28
1.77922e-27
-3.52201e-27
6.95404e-27
-1.3695e-26
2.69006e-26
-5.27023e-26
1.02982e-25
-2.00699e-25
3.90106e-25
-7.56247e-25
1.46212e-24
-2.81927e-24
5.42145e-24
-1.03971e-23
1.98851e-23
-3.79269e-23
7.21388e-23
-1.36831e-22
2.58814e-22
-4.88172e-22
9.18187e-22
-1.72209e-21
3.22064e-21
-6.00595e-21
1.11678e-20
-2.07057e-20
3.82775e-20
-7.05541e-20
1.29663e-19
-2.37584e-19
4.3403e-19
-7.90524e-19
1.43547e-18
-2.59865e-18
4.68998e-18
-8.43825e-18
1.51351e-17
-2.70619e-17
4.82353e-17
-8.57029e-17
1.51789e-16
-2.67973e-16
4.7156e-16
-8.27121e-16
1.44603e-15
-2.51972e-15
4.37607e-15
-7.57462e-15
1.30669e-14
-2.24652e-14
3.84911e-14
-6.57224e-14
1.1183e-13
-1.89619e-13
3.20385e-13
-5.39411e-13
9.04922e-13
-1.51263e-12
2.51926e-12
-4.18042e-12
6.91127e-12
-1.13835e-11
1.86791e-11
-3.05342e-11
4.97227e-11
-8.06574e-11
1.30328e-10
-2.09761e-10
3.36268e-10
-5.36915e-10
8.5382e-10
-1.35224e-09
2.13278e-09
-3.34988e-09
5.23942e-09
-8.16e-09
1.26541e-08
-1.95381e-08
3.0035e-08
-4.59668e-08
7.00342e-08
-1.0622e-07
1.60363e-07
-2.40981e-07
3.60428e-07
-5.3652e-07
7.94801e-07
-1.17168e-06
1.71874e-06
-2.50862e-06
3.64292e-06
-5.2629e-06
7.56362e-06
-1.08126e-05
1.53742e-05
-2.17409e-05
3.05739e-05
-4.27535e-05
5.94428e-05
-8.21659e-05
0.000112902
-0.000154201
0.000209312
-0.000282341
0.000378416
-0.000503878
0.000666467
-0.00087552
0.00114214
-0.00147933
0.00190207
-0.00242728
0.00307367
-0.00386138
0.00481141
-0.00594477
0.00728131
-0.00883817
0.0106279
-0.0126563
0.0149198
-0.0174025
0.020074
-0.0228863
0.0257718
-0.0286423
0.0313888
-0.0338826
0.0359795
-0.037525
0.0383629
-0.0383451
0.037345
-0.0352705
0.0320789
-0.0277901
0.0224973
-0.016374
0.00967426
-0.00272614
-0.00408384
0.0103348
-0.0156036
0.019503
-0.021723
0.0220702
-0.0205018
0.0171467
-0.0123115
0.00646538
-0.000203824
-0.00580754
0.0109054
-0.0145091
0.0161996
-0.0157841
0.013337
-0.00920566
0.00397738
0.00159276
-0.00668596
0.0105422
-0.012583
0.0125122
-0.0103776
0.00657541
-0.00179369
-0.00310064
0.00721517
-0.00979877
0.0103899
-0.00891523
0.00571402
-0.00147849
-0.00288355
0.00643859
-0.00843092
0.0084545
-0.00655131
0.0032088
0.000748799
-0.00435433
0.00673329
-0.00732342
0.00602114
-0.00321287
-0.000322402
0.00361865
-0.00578477
0.00625191
-0.00493554
0.0022621
0.000952837
-0.00374384
0.00528466
-0.00513987
0.00339988
-0.000652771
-0.00220297
0.00424906
-0.00484867
0.00385831
-0.00167619
-0.000893716
0.00291939
-0.00366593
0.00285343
-0.000752773
-0.00191931
0.00427142
-0.00557671
0.00555267
-0.00447294
0.00306428
-0.00222533
0.00267571
-0.0046754
0.00792931
-0.0117186
0.0152066
-0.0177919
0.0193578
-0.0203081
0.0213702
-0.023248
0.026278
-0.0302419
0.0344235
-0.0378881
0.0398567
-0.040005
0.038548
-0.0360721
0.0331999
-0.0302561
0.0271043
-0.0232426
0.0181152
-0.011485
0.00367464
0.0044526
-0.011773
0.0173078
-0.0205548
0.0215844
-0.020866
0.018935
-0.0160974
0.0123425
-0.00751445
0.00163419
0.00482941
-0.0109248
0.0154736
-0.0175044
0.0166434
-0.0132566
0.0082725
-0.00279241
-0.00229468
0.00649194
-0.00960951
0.011526
-0.0120035
0.0107187
-0.00751277
0.00269706
0.00281852
-0.00771437
0.0107173
-0.0110984
0.00894607
-0.00507369
0.000630762
0.00334782
-0.00621338
0.00770092
-0.00775273
0.00637323
-0.00366041
-1.68428e-05
0.00388251
-0.00685497
0.00792598
-0.00664072
0.00338829
0.00070451
-0.00424744
0.00617197
-0.00610937
0.00439144
-0.00175048
-0.00103885
0.00336025
-0.00476306
0.00491508
-0.00366068
0.00119837
0.00178687
-0.00424227
0.00516458
-0.0041178
0.00152134
0.00151279
-0.00372665
0.00432306
-0.00327705
0.00121318
0.000998821
-0.00263457
0.0032902
-0.00286146
0.00148544
0.000450801
-0.00230027
0.00329967
-0.00291339
0.00120188
0.00108105
-0.00282251
0.00316253
-0.0019913
-8.88424e-06
0.00179777
-0.00257439
0.00214369
-0.00087748
-0.000596246
0.00170361
-0.00207666
0.00159046
-0.000398554
-0.00103381
0.0020294
-0.00201406
0.000907326
0.000720479
-0.00193176
0.00201263
-0.000952046
-0.000560423
0.00161742
-0.00168256
0.000859082
0.000291136
-0.00115455
0.00137513
-0.000928034
4.76948e-05
0.000863227
-0.00134541
0.00108467
-0.000153805
-0.000920377
0.00143517
-0.00101121
-8.01139e-05
0.00107986
-0.00130566
0.000658288
0.000346155
-0.0010127
0.000973418
-0.000365098
-0.000372949
0.000823178
-0.000784058
0.000301087
0.000369108
-0.00083851
0.000774488
-0.000157627
-0.000610693
0.000948985
-0.000566624
-0.00024964
0.000846783
-0.000760842
0.00010622
0.000559108
-0.000736529
0.000370657
0.000194658
-0.000553145
0.000515358
-0.000154051
-0.000295583
0.000553059
-0.000424427
-4.26406e-05
0.000513628
-0.000584359
0.000152775
0.000424875
-0.000627784
0.000271286
0.000303988
-0.000570249
0.00032393
0.000159866
-0.000444908
0.00034036
1.97615e-06
-0.000296196
0.000351787
-0.00015147
-0.000168589
0.000374472
-0.000273129
-9.15281e-05
0.000401418
-0.000336872
-6.69048e-05
0.00040826
-0.000334316
-6.82939e-05
0.000372484
-0.000285988
-5.71986e-05
0.00029519
-0.000235071
-1.0392e-05
0.00020858
-0.000221774
5.95992e-05
0.000158209
-0.000253292
0.000110178
0.000168031
-0.000294844
0.000102923
0.000216007
-0.000296732
4.15278e-05
0.000247804
-0.000241065
-2.42778e-05
0.000225643
-0.000164758
-4.25977e-05
0.000169124
-0.000127065
-1.46486e-05
0.000139345
-0.000144768
8.89985e-07
0.000170594
-0.000165795
-4.69122e-05
0.000222139
-0.00012485
-0.000133346
0.00021857
-2.72549e-05
-0.000178631
0.000144772
4.8859e-05
-0.000148695
7.23412e-05
5.37869e-05
-0.000105847
6.27497e-05
4.01469e-05
-0.000120426
7.19319e-05
8.61982e-05
-0.000155789
1.28507e-05
0.000163105
-0.000114816
-9.58555e-05
0.000163781
-2.59753e-06
-0.000139851
7.75875e-05
6.41431e-05
-9.37236e-05
1.86973e-05
4.98211e-05
-6.66925e-05
2.60926e-05
6.04706e-05
-9.49704e-05
-8.63538e-06
0.000126604
-6.07818e-05
-0.000111616
0.000115846
6.19763e-05
-0.000134852
-2.36848e-06
0.000113376
-4.19065e-05
-6.29812e-05
5.48402e-05
3.99201e-06
-3.40867e-05
4.3489e-05
-1.05449e-05
-6.66047e-05
6.25342e-05
6.27575e-05
-0.000105183
-3.85411e-05
0.000126781
5.92762e-06
-0.000123078
2.24074e-05
9.69778e-05
-3.69834e-05
-5.62711e-05
3.36856e-05
1.06031e-05
-1.40291e-05
3.12613e-05
-1.60838e-05
-6.31863e-05
4.84322e-05
8.22305e-05
-7.46891e-05
-8.82162e-05
8.82736e-05
8.27253e-05
-8.55803e-05
-6.79965e-05
6.65225e-05
4.61238e-05
-3.44524e-05
-1.87893e-05
-4.44664e-06
-1.24345e-05
4.22223e-05
4.53809e-05
-7.06141e-05
-7.65234e-05
8.28309e-05
0.000100594
-7.5448e-05
-0.000111027
5.00283e-05
0.000101511
-1.38641e-05
-6.85401e-05
-2.08629e-05
1.43333e-05
4.00202e-05
5.11185e-05
-3.24565e-05
-0.000110448
-4.22314e-06
0.000143034
5.93841e-05
-0.000132885
-0.000109631
7.81304e-05
0.000125981
2.43095e-06
-8.75956e-05
-7.13946e-05
-2.74338e-06
8.70539e-05
0.000110541
-2.73689e-05
-0.000178639
-8.77711e-05
0.000156627
0.000193496
-3.98092e-05
-0.00020952
-0.000108144
9.67285e-05
0.000177537
9.27398e-05
-8.63044e-05
-0.000221673
-0.000134133
0.000157529
0.000318735
9.56791e-05
-0.000275037
-0.000339469
-2.43647e-05
0.000307927
0.000333333
5.65052e-05
-0.000293486
-0.000431093
-0.000170366
0.000340011
0.000606598
0.000273888
-0.000396475
-0.000744528
-0.000416418
0.000304755
0.000826376
0.000730815
1.61676e-05
-0.000869275
-0.00121535
-0.000574738
0.000712812
0.00164911
0.00140016
1.71423e-05
-0.0016105
-0.00238416
-0.00164049
0.000448292
0.00279197
0.00382714
0.00249276
-0.000889027
-0.00460612
-0.00647874
-0.00501756
-0.000181609
0.0064125
0.0118383
0.0128668
0.0074511
-0.00402204
-0.01842
-0.0305294
-0.0341944
-0.0235372
0.00582654
0.0557561
0.12517
0.210472
0.306499
0.407445
0.507568
0.601851
0.68661
0.75978
0.820703
0.869677
0.907649
0.936094
0.95682
0.971593
0.981836
0.988643
0.992977
0.995722
0.997524
0.998682
0.999301
0.999545
0.999672
0.999851
1.00003
1.00006
0.999956
0.999875
0.999945
1.00009
1.00012
0.999992
0.999867
0.999907
1.00007
1.00016
1.00005
0.999871
0.999843
1.00001
1.00018
1.00014
0.999933
0.999785
0.99988
1.00012
1.00025
1.00009
0.999819
0.999722
0.999926
1.00023
1.00032
1.00007
0.999714
0.999626
0.999921
1.00033
1.00046
1.00013
0.999634
0.999431
0.999755
1.00036
1.00071
1.00045
0.999731
0.999145
0.99923
1.00001
1.00091
1.0012
1.00053
0.999298
0.9984
0.998598
0.999933
1.0016
1.00243
1.00166
0.999506
0.997179
0.996212
0.997547
1.00086
1.00456
1.0065
1.00507
1.00018
0.993532
0.988146
0.987185
0.992582
1.00398
1.01837
1.03056
1.03425
1.02353
0.994111
0.944223
0.874886
0.789573
0.693462
0.592493
0.492444
0.398219
0.31341
0.240157
0.179245
0.130363
0.0924249
0.0639023
0.043101
0.0283684
0.0182251
0.0114311
0.00700103
0.00418733
0.00244591
0.00139531
0.000777315
0.000422823
0.000224523
0.000116349
5.88151e-05
2.89865e-05
1.39181e-05
6.50498e-06
2.95596e-06
1.30405e-06
5.5744e-07
2.30302e-07
9.16386e-08
3.4946e-08
1.26783e-08
4.32495e-09
1.35882e-09
3.76705e-10
8.18785e-11
6.67071e-12
-6.32726e-12
-5.2746e-12
-2.79453e-12
-1.21836e-12
-4.63333e-13
-1.55041e-13
-4.44688e-14
-9.8857e-15
-9.36042e-16
6.14766e-16
5.13012e-16
2.54789e-16
1.00576e-16
3.31781e-17
8.91282e-18
1.65378e-18
-1.75205e-20
-2.03125e-19
-1.22444e-19
-5.12715e-20
-1.70883e-20
-4.4823e-21
-7.61783e-22
4.66535e-23
1.11689e-22
6.03581e-23
2.30006e-23
6.7904e-24
1.43757e-24
9.79074e-26
-9.67378e-26
-6.50457e-26
-2.64658e-26
-8.03993e-27
-1.73754e-27
-1.35687e-28
1.0261e-28
6.98873e-29
2.76867e-29
7.9853e-30
1.543e-30
3.63091e-32
-1.32363e-31
-7.36778e-32
-2.59749e-32
-6.50467e-33
-8.99415e-34
1.54118e-34
1.64971e-34
7.02338e-35
2.04332e-35
3.84333e-36
4.99557e-38
-3.29524e-37
-1.69848e-37
-5.46961e-38
-1.17509e-38
-8.70932e-40
6.26853e-40
3.84873e-40
1.3195e-40
3.00176e-41
2.89837e-42
-1.23233e-42
-8.42351e-43
-2.94814e-43
-6.73314e-44
-6.53901e-45
2.66731e-45
1.80431e-45
6.16175e-46
1.34485e-46
1.06505e-47
-6.28894e-48
-3.76541e-48
-1.20072e-48
-2.37016e-49
-9.28082e-51
1.5075e-50
7.5201e-51
2.14964e-51
3.54918e-52
-1.4001e-53
-3.4364e-53
-1.40167e-53
-3.44073e-54
-4.04555e-55
9.23104e-56
7.13907e-56
2.36749e-56
4.68516e-57
1.93008e-58
-2.74941e-58
-1.31498e-58
-3.48881e-59
-4.81727e-60
5.90538e-61
6.06732e-61
2.09183e-61
4.20319e-62
1.98901e-63
-2.2637e-63
-1.07581e-63
-2.75872e-64
-3.46156e-65
5.83472e-66
4.85218e-66
1.54137e-66
2.74192e-67
4.78022e-70
-1.92006e-68
-7.67792e-69
-1.69909e-69
-1.35241e-70
6.49793e-71
3.48932e-71
9.16783e-72
1.17527e-72
-1.71402e-73
-1.46631e-73
-4.4962e-74
-7.37018e-75
2.07214e-76
5.74693e-76
2.05109e-76
3.95578e-77
1.3416e-78
-2.1134e-78
-8.83429e-79
-1.92299e-79
-1.40106e-80
7.32809e-81
3.63218e-81
8.69899e-82
8.65892e-83
-2.40872e-83
-1.43814e-83
-3.71969e-84
-4.40726e-85
7.56681e-86
5.52468e-86
1.5187e-86
2.00222e-87
-2.30595e-88
-2.07219e-88
-5.96136e-89
-8.38664e-90
7.00394e-91
7.62793e-91
2.26024e-91
3.29072e-92
-2.20979e-93
-2.76606e-93
-8.30246e-94
-1.21942e-94
7.56203e-96
9.90162e-96
2.95941e-96
4.28255e-97
-2.85188e-98
-3.50014e-98
-1.02403e-98
-1.42544e-99
1.15588e-100
1.22019e-100
3.43716e-101
4.48097e-102
-4.81708e-103
-4.1838e-103
-1.11703e-103
-1.31959e-104
1.98948e-105
1.40582e-105
3.50437e-106
3.5822e-107
-7.96573e-108
-4.60955e-108
-1.05678e-108
-8.66732e-110
3.05817e-110
1.46809e-110
3.045e-111
1.71427e-112
-1.1201e-112
-4.51938e-113
-8.31089e-114
-1.88349e-115
3.90463e-115
1.33755e-115
2.1199e-116
-5.05797e-118
-1.29356e-117
-3.78238e-118
-4.93605e-119
4.68113e-120
4.0662e-120
1.01409e-120
9.98711e-122
-2.23525e-122
-1.21007e-122
-2.55002e-123
-1.52049e-124
8.56986e-125
3.39732e-125
5.91218e-126
4.74414e-128
-2.8853e-127
-8.94942e-128
-1.2244e-128
8.65176e-130
8.95958e-130
1.6231e-130
)
;

boundaryField
{
    sides
    {
        type            zeroGradient;
    }
    empty
    {
        type            empty;
    }
}


// ************************************************************************* //
