/*--------------------------------*- C++ -*----------------------------------*\
| =========                 |                                                 |
| \\      /  F ield         | OpenFOAM: The Open Source CFD Toolbox           |
|  \\    /   O peration     | Version:  2312                                  |
|   \\  /    A nd           | Website:  www.openfoam.com                      |
|    \\/     M anipulation  |                                                 |
\*---------------------------------------------------------------------------*/
FoamFile
{
    version     2.0;
    format      ascii;
    arch        "LSB;label=32;scalar=64";
    class       volScalarField;
    location    "4.1";
    object      T;
}
// * * * * * * * * * * * * * * * * * * * * * * * * * * * * * * * * * * * * * //

dimensions      [0 0 0 1 0 0 0];

internalField   nonuniform List<scalar> 
1000
(
1.98315e-293
-3.67258e-293
2.85162e-292
-1.78351e-291
1.13056e-290
-7.13231e-290
4.48484e-289
-2.81049e-288
1.75524e-287
-1.09244e-286
6.77592e-286
-4.18829e-285
2.57986e-284
-1.58359e-283
9.68654e-283
-5.9043e-282
3.5862e-281
-2.1705e-280
1.309e-279
-7.86618e-279
4.71009e-278
-2.81013e-277
1.67051e-276
-9.89443e-276
5.83906e-275
-3.4332e-274
2.01118e-273
-1.17379e-272
6.82518e-272
-3.95375e-271
2.28176e-270
-1.31186e-269
7.51374e-269
-4.28712e-268
2.43673e-267
-1.37967e-266
7.78139e-266
-4.37167e-265
2.44645e-264
-1.36369e-263
7.57136e-263
-4.18702e-262
2.30621e-261
-1.26516e-260
6.91247e-260
-3.76145e-259
2.03846e-258
-1.10017e-257
5.91323e-257
-3.16505e-256
1.68701e-255
-8.95423e-255
4.73259e-254
-2.49069e-253
1.3052e-252
-6.81024e-252
3.53804e-251
-1.83007e-250
9.42457e-250
-4.83209e-249
2.46646e-248
-1.25334e-247
6.34017e-247
-3.19273e-246
1.60043e-245
-7.98564e-245
3.96615e-244
-1.96065e-243
9.64688e-243
-4.72406e-242
2.30234e-241
-1.1167e-240
5.39008e-240
-2.58901e-239
1.23747e-238
-5.88542e-238
2.78515e-237
-1.31138e-236
6.14326e-236
-2.86314e-235
1.32751e-234
-6.12302e-234
2.80936e-233
-1.28215e-232
5.82028e-232
-2.62783e-231
1.17998e-230
-5.26936e-230
2.34002e-229
-1.03332e-228
4.53714e-228
-1.98076e-227
8.59725e-227
-3.70968e-226
1.59123e-225
-6.78457e-225
2.87523e-224
-1.21102e-223
5.06906e-223
-2.10847e-222
8.71434e-222
-3.57844e-221
1.45985e-220
-5.91609e-220
2.38142e-219
-9.52071e-219
3.77998e-218
-1.49022e-217
5.83312e-217
-2.2667e-216
8.74328e-216
-3.34724e-215
1.27166e-214
-4.79365e-214
1.79269e-213
-6.65001e-213
2.44647e-212
-8.92447e-212
3.2275e-211
-1.15691e-210
4.10955e-210
-1.44625e-209
5.04124e-209
-1.74004e-208
5.94537e-208
-2.01028e-207
6.7242e-207
-2.22413e-206
7.2716e-206
-2.34878e-205
7.4914e-205
-2.35794e-204
7.31895e-204
-2.23856e-203
6.7405e-203
-1.99594e-202
5.80452e-202
-1.65524e-201
4.61927e-201
-1.25836e-200
3.33509e-200
-8.5604e-200
2.11395e-199
-4.97139e-199
1.09426e-198
-2.17945e-198
3.61263e-198
-3.49181e-198
-6.73811e-198
5.6797e-197
-2.36279e-196
7.87343e-196
-2.29826e-195
6.02407e-195
-1.41409e-194
2.88071e-194
-4.58638e-194
3.06362e-194
1.56359e-193
-9.53439e-193
3.52651e-192
-1.05084e-191
2.66265e-191
-5.66942e-191
9.18644e-191
-5.8305e-191
-3.31551e-190
1.93062e-189
-6.79888e-189
1.88273e-188
-4.23246e-188
7.13117e-188
-4.97206e-188
-2.39452e-187
1.41449e-186
-4.84867e-186
1.26711e-185
-2.54129e-185
3.14085e-185
2.508e-185
-3.15836e-184
1.23744e-183
-3.4161e-183
7.00851e-183
-8.5925e-183
-7.8418e-183
8.96971e-182
-3.38127e-181
8.8093e-181
-1.60818e-180
1.21342e-180
5.17641e-180
-2.98181e-179
9.30264e-179
-2.00995e-178
2.47809e-178
2.51197e-178
-2.63485e-177
9.3364e-177
-2.17785e-176
3.00985e-176
1.54731e-176
-2.55198e-175
9.40485e-175
-2.18939e-174
2.86116e-174
2.40311e-174
-2.77923e-173
9.5646e-173
-2.03928e-172
2.014e-172
4.96343e-172
-3.22093e-171
9.45453e-171
-1.64777e-170
4.27064e-171
8.72874e-170
-3.62351e-169
8.38062e-169
-9.18017e-169
-1.77516e-168
1.24627e-167
-3.57698e-167
5.60074e-167
1.47355e-167
-4.04575e-166
1.40399e-165
-2.64611e-165
9.52689e-166
1.29923e-164
-5.3125e-164
1.11434e-163
-7.152e-164
-4.3463e-163
1.9941e-162
-4.39383e-162
3.20701e-162
1.58564e-161
-7.53609e-161
1.65092e-160
-1.08919e-160
-6.3978e-160
2.87076e-159
-5.89893e-159
2.48231e-159
2.77562e-158
-1.08917e-157
1.96072e-157
1.03994e-158
-1.2326e-156
4.01918e-156
-5.73137e-156
-5.68725e-156
5.34532e-155
-1.39056e-154
1.24746e-154
4.42808e-154
-2.17384e-153
4.24066e-153
-2.80728e-154
-2.4759e-152
7.93723e-152
-9.83165e-152
-1.7329e-151
1.12772e-150
-2.42358e-150
6.30662e-151
1.26404e-149
-4.20412e-149
5.07852e-149
9.97329e-149
-6.0104e-148
1.18485e-147
9.74651e-149
-7.35606e-147
2.08704e-146
-1.67217e-146
-7.59435e-146
3.17281e-145
-4.54291e-145
-5.93313e-145
4.36694e-144
-8.7413e-144
-1.44071e-144
5.56591e-143
-1.4507e-142
6.97024e-143
6.64726e-142
-2.21329e-141
2.05908e-141
7.4839e-141
-3.20348e-140
4.10018e-140
7.96621e-140
-4.48583e-139
7.01951e-139
8.03897e-139
-6.16385e-138
1.10714e-137
7.76607e-138
-8.40283e-137
1.65764e-136
7.44455e-137
-1.14613e-135
2.39197e-135
7.80115e-136
-1.5732e-134
3.35166e-134
1.03172e-134
-2.17889e-133
4.571e-133
1.77367e-133
-3.04293e-132
6.05417e-132
3.48036e-132
-4.26839e-131
7.73118e-131
6.92251e-131
-5.97376e-130
9.38175e-130
1.32719e-129
-8.26653e-129
1.05169e-128
2.41718e-128
-1.11833e-127
1.02171e-127
4.16814e-127
-1.45777e-126
6.94954e-127
6.79303e-126
-1.79409e-125
-1.55976e-126
1.04241e-124
-2.01559e-124
-1.82404e-124
1.49447e-123
-1.92389e-123
-4.61093e-123
1.97242e-122
-1.22097e-122
-8.68639e-122
2.32848e-121
4.63338e-122
-1.38332e-120
2.30218e-120
3.46288e-120
-1.90856e-119
1.52468e-119
7.84506e-119
-2.23631e-118
-4.01843e-119
1.30522e-117
-2.03587e-117
-3.70282e-117
1.75013e-116
-9.11572e-117
-8.09306e-116
1.83912e-115
1.42183e-115
-1.23808e-114
1.21457e-114
4.8292e-114
-1.42562e-113
-4.03285e-114
8.38997e-113
-1.06779e-112
-2.93782e-112
1.02167e-111
7.16849e-113
-5.64062e-111
7.84428e-111
1.91606e-110
-6.97501e-110
-4.67805e-111
3.82368e-109
-5.04353e-109
-1.36477e-108
4.55798e-108
1.21257e-108
-2.60314e-107
2.76238e-107
1.03393e-106
-2.79962e-106
-1.97169e-106
1.73861e-105
-1.09996e-105
-7.90083e-105
1.53763e-104
2.35886e-104
-1.09252e-103
2.12842e-105
5.75227e-103
-6.62892e-103
-2.29348e-102
6.02375e-102
5.51451e-102
-3.75933e-101
1.08576e-101
1.85867e-100
-2.48294e-100
-7.2076e-100
2.01911e-99
1.77345e-99
-1.22537e-98
2.47983e-99
6.14321e-98
-6.98444e-98
-2.55223e-97
5.91363e-97
7.99735e-97
-3.75436e-96
-9.26694e-97
2.01577e-95
-1.1849e-95
-9.42093e-95
1.35912e-94
3.77867e-94
-9.87144e-94
-1.19449e-93
5.93487e-93
1.81747e-93
-3.16009e-92
1.26575e-92
1.52423e-91
-1.65775e-91
-6.67e-91
1.26591e-90
2.59575e-90
-7.98788e-90
-8.39851e-90
4.52188e-89
1.68955e-89
-2.37222e-88
4.18221e-89
1.17114e-87
-8.02736e-88
-5.48027e-87
6.63766e-87
2.43517e-86
-4.40983e-86
-1.02416e-85
2.62863e-85
4.03408e-85
-1.46515e-84
-1.45178e-84
7.79522e-84
4.47944e-84
-4.00735e-83
-9.33349e-84
2.00675e-82
-1.23846e-83
-9.84736e-82
3.19399e-82
4.75756e-81
-2.68012e-81
-2.27203e-80
1.77843e-80
1.07631e-79
-1.05863e-79
-5.0741e-79
5.90831e-79
2.38759e-78
-3.15632e-78
-1.12437e-77
1.63217e-77
5.3116e-77
-8.22315e-77
-2.52184e-76
4.05155e-76
1.20486e-75
-1.95576e-75
-5.79609e-75
9.25259e-75
2.80691e-74
-4.28528e-74
-1.36716e-73
1.93752e-73
6.68667e-73
-8.50878e-73
-3.27698e-72
3.59806e-72
1.60507e-71
-1.44267e-71
-7.83453e-71
5.32091e-71
3.79881e-70
-1.67723e-70
-1.82343e-69
3.39527e-70
8.63091e-69
7.69598e-70
-4.01044e-68
-1.56652e-68
1.81926e-67
1.32724e-67
-7.99809e-67
-9.01116e-67
3.372e-66
5.46583e-66
-1.34034e-65
-3.07441e-65
4.866e-65
1.62858e-64
-1.49686e-64
-8.17176e-64
2.9247e-64
3.88335e-63
6.40151e-64
-1.73807e-62
-1.22404e-62
7.2325e-62
9.6389e-62
-2.72345e-61
-5.97634e-61
8.69938e-61
3.23722e-60
-1.87456e-60
-1.57872e-59
-1.99305e-60
6.95294e-59
5.67319e-59
-2.71429e-58
-4.47561e-58
8.85239e-58
2.65118e-57
-1.93499e-57
-1.32663e-56
-1.80412e-57
5.73187e-56
5.44167e-56
-2.08261e-55
-4.14295e-55
5.64213e-55
2.30865e-54
-4.48855e-55
-1.05156e-53
-7.55444e-54
3.89911e-53
6.92923e-53
-1.04246e-52
-4.01231e-52
6.22079e-53
1.80013e-51
1.53033e-51
-6.22581e-51
-1.29914e-50
1.3297e-50
6.9858e-50
1.74577e-50
-2.80491e-49
-3.81459e-49
7.75708e-49
2.49578e-48
-4.72419e-49
-1.11494e-47
-1.09355e-47
3.43915e-47
8.70789e-47
-4.06484e-47
-4.16368e-46
-3.39957e-46
1.32726e-45
3.08981e-45
-1.64109e-45
-1.50142e-44
-1.2577e-44
4.60939e-44
1.13143e-43
-4.04405e-44
-5.23234e-43
-5.44271e-43
1.41295e-42
4.2019e-42
6.73293e-44
-1.71614e-41
-2.47447e-41
3.46208e-41
1.51351e-40
8.05999e-41
-4.96853e-40
-1.0685e-39
4.07226e-40
4.94313e-39
5.9214e-39
-1.07935e-38
-4.06406e-38
-2.04361e-38
1.30635e-37
2.90299e-37
-5.48217e-38
-1.24656e-36
-1.82e-36
1.95256e-36
1.04594e-35
9.78205e-36
-2.48082e-35
-8.07309e-35
-4.06779e-35
2.46786e-34
5.8848e-34
6.55967e-35
-2.18117e-33
-4.13216e-33
1.08188e-33
1.79819e-32
2.84644e-32
-1.74258e-32
-1.41846e-31
-1.95979e-31
1.78767e-31
1.08706e-30
1.37388e-30
-1.53027e-30
-8.16692e-30
-9.95523e-30
1.16164e-29
6.03919e-29
7.50608e-29
-7.87516e-29
-4.39213e-28
-5.86176e-28
4.59776e-28
3.12328e-27
4.67414e-27
-1.99284e-27
-2.1462e-26
-3.73266e-26
1.02761e-27
1.39664e-25
2.92378e-25
1.1155e-25
-8.30196e-25
-2.19868e-24
-1.74968e-24
4.16633e-24
1.54868e-23
1.91331e-23
-1.33622e-23
-9.86579e-23
-1.73554e-22
-3.86676e-23
5.31894e-22
1.35163e-21
1.21187e-21
-1.99378e-21
-8.90728e-21
-1.37388e-20
-8.81546e-22
4.61043e-20
1.12272e-19
1.06434e-19
-1.3594e-19
-6.96227e-19
-1.21246e-18
-5.42771e-19
2.84741e-18
8.84891e-18
1.20737e-17
-2.82523e-19
-4.17889e-17
-1.03591e-16
-1.19028e-16
4.88124e-17
5.2424e-16
1.17304e-15
1.25224e-15
-6.87413e-16
-5.9391e-15
-1.31495e-14
-1.4696e-14
4.77447e-15
6.08074e-14
1.45208e-13
1.87459e-13
2.8192e-14
-5.31818e-13
-1.52263e-12
-2.40484e-12
-1.64556e-12
3.20043e-12
1.40066e-11
2.83589e-11
3.40071e-11
4.91415e-12
-9.31275e-11
-2.75776e-10
-4.83904e-10
-5.07485e-10
6.11083e-11
1.73814e-09
4.77145e-09
8.3505e-09
9.47542e-09
2.01374e-09
-2.28023e-08
-7.24001e-08
-1.43092e-07
-2.0338e-07
-1.73192e-07
9.02966e-08
7.77964e-07
2.05009e-06
3.85118e-06
5.58513e-06
5.66031e-06
1.00748e-06
-1.31678e-05
-4.29121e-05
-9.35755e-05
-0.000165372
-0.000245267
-0.000294069
-0.000227947
0.000105559
0.000955764
0.0026984
0.00586186
0.011144
0.0194127
0.0316825
0.0490641
0.0726835
0.103574
0.142549
0.190072
0.246138
0.310184
0.381054
0.457022
0.53588
0.615097
0.692017
0.764084
0.829065
0.88524
0.931538
0.967594
0.993731
1.01087
1.02038
1.02389
1.02311
1.01966
1.01493
1.01
1.0056
1.00215
0.99979
0.998441
0.997916
0.997968
0.998353
0.998867
0.999365
0.999764
1.00003
1.00017
1.00022
1.00019
1.00014
1.00008
1.00003
1
0.999982
0.999977
0.99998
0.999986
0.999992
0.999998
1
1
1
1
1
1
1
1
1
1
1
1
1
1
1
1
1
1
1
1
1
1
1
1
1
1
1
1
1
1
1
0.999999
0.999998
0.999996
0.999994
0.999994
0.999999
1.00001
1.00004
1.00009
1.00017
1.00025
1.00029
1.00023
0.999894
0.999044
0.997302
0.994138
0.988856
0.980587
0.968318
0.950936
0.927316
0.896426
0.857451
0.809928
0.753862
0.689816
0.618946
0.542978
0.46412
0.384903
0.307983
0.235916
0.170935
0.11476
0.0684617
0.0324058
0.00626885
-0.0108692
-0.0203762
-0.0238855
-0.0231076
-0.0196589
-0.0149291
-0.00999767
-0.00560218
-0.0021541
0.000210434
0.00155875
0.00208363
0.00203175
0.00164699
0.00113297
0.000634662
0.000236034
-3.11023e-05
-0.000172404
-0.000215061
-0.000193959
-0.000141757
-8.33167e-05
-3.39257e-05
-1.91939e-07
1.762e-05
2.28834e-05
2.02621e-05
1.40864e-05
7.511e-06
2.31258e-06
-8.99921e-07
-2.2923e-06
-2.40319e-06
-1.83485e-06
-1.07102e-06
-4.09793e-07
2.43208e-08
2.28933e-07
2.64714e-07
2.0798e-07
1.22079e-07
4.63412e-08
-2.87218e-09
-2.51903e-08
-2.82085e-08
-2.12135e-08
-1.15958e-08
-3.646e-09
1.11312e-09
2.93744e-09
2.84751e-09
1.91017e-09
8.82783e-10
1.41308e-10
-2.33678e-10
-3.23279e-10
-2.56524e-10
-1.4241e-10
-4.52201e-11
1.20921e-11
3.27118e-11
3.04022e-11
1.897e-11
7.54603e-12
8.32442e-14
-3.08863e-12
-3.32716e-12
-2.24363e-12
-9.90621e-13
-1.15773e-13
2.86237e-13
3.46534e-13
2.43951e-13
1.12227e-13
1.72936e-14
-2.73765e-14
-3.49904e-14
-2.48057e-14
-1.13333e-14
-1.67345e-15
2.77427e-15
3.44711e-15
2.37136e-15
1.02736e-15
1.03756e-16
-2.9338e-16
-3.29647e-16
-2.12229e-16
-8.25588e-17
-1.59393e-19
3.10421e-17
3.01834e-17
1.75516e-17
5.64432e-18
-1.10684e-18
-3.1501e-18
-2.59606e-18
-1.30983e-18
-2.90354e-19
2.03571e-19
2.97037e-19
2.0489e-19
8.4417e-20
5.05271e-21
-2.55146e-20
-2.54152e-20
-1.43838e-20
-4.23326e-21
1.19072e-21
2.57467e-21
1.92799e-21
8.52472e-22
1.0161e-22
-2.03424e-22
-2.17965e-22
-1.25472e-22
-3.74818e-23
9.42421e-24
2.1114e-23
1.55001e-23
6.55221e-24
5.50498e-25
-1.71394e-24
-1.68299e-24
-8.96864e-25
-2.21244e-25
1.04822e-25
1.63504e-25
1.06455e-25
3.79336e-26
-2.23711e-27
-1.4245e-26
-1.14061e-26
-5.08411e-27
-6.32666e-28
1.09719e-27
1.12597e-27
5.95402e-28
1.40614e-28
-7.11986e-29
-1.03646e-28
-6.36182e-29
-2.0144e-29
3.26463e-30
8.96469e-30
6.34351e-30
2.41585e-30
1.36304e-32
-7.32342e-31
-5.98672e-31
-2.60699e-31
-2.7965e-32
5.67153e-32
5.40163e-32
2.61287e-32
4.60367e-33
-4.17691e-33
-4.69587e-33
-2.47754e-33
-5.50173e-34
3.27207e-34
)
;

boundaryField
{
    sides
    {
        type            zeroGradient;
    }
    empty
    {
        type            empty;
    }
}


// ************************************************************************* //
