/*--------------------------------*- C++ -*----------------------------------*\
| =========                 |                                                 |
| \\      /  F ield         | OpenFOAM: The Open Source CFD Toolbox           |
|  \\    /   O peration     | Version:  2312                                  |
|   \\  /    A nd           | Website:  www.openfoam.com                      |
|    \\/     M anipulation  |                                                 |
\*---------------------------------------------------------------------------*/
FoamFile
{
    version     2.0;
    format      ascii;
    arch        "LSB;label=32;scalar=64";
    class       volScalarField;
    location    "3.4";
    object      T;
}
// * * * * * * * * * * * * * * * * * * * * * * * * * * * * * * * * * * * * * //

dimensions      [0 0 0 1 0 0 0];

internalField   nonuniform List<scalar> 
1000
(
0
0
0
0
0
0
0
0
0
0
0
0
0
0
0
0
0
0
0
0
0
0
0
0
0
0
0
0
0
0
0
0
0
0
0
0
0
0
0
0
0
0
0
0
0
0
0
0
0
0
0
0
0
0
0
0
0
0
0
0
0
0
0
0
0
0
0
0
0
0
0
0
0
0
0
0
0
0
0
0
0
0
0
0
0
0
0
0
0
0
0
0
0
0
0
0
0
0
0
0
0
0
0
0
0
0
0
0
0
0
0
0
0
0
0
0
0
0
0
0
0
0
0
0
0
0
0
0
0
0
0
0
0
0
0
0
0
0
0
0
0
0
0
0
0
0
0
0
0
0
0
0
0
0
0
0
0
0
0
0
0
0
0
0
0
0
0
0
0
0
0
0
0
-4.94066e-324
2.96439e-323
-4.94066e-324
2.96439e-323
-4.94066e-324
2.96439e-323
-4.94066e-324
2.96439e-323
-4.94066e-324
2.96439e-323
-4.94066e-324
2.96439e-323
-4.94066e-324
2.96439e-323
-4.94066e-324
2.96439e-323
-4.94066e-324
2.96439e-323
-4.94066e-324
2.96439e-323
-4.94066e-324
2.96439e-323
-4.94066e-324
2.96439e-323
-4.94066e-324
2.96439e-323
-4.94066e-324
2.96439e-323
-4.94066e-324
2.96439e-323
-4.94066e-324
2.96439e-323
-4.94066e-324
2.96439e-323
-4.94066e-324
2.96439e-323
-4.94066e-324
2.96439e-323
-4.94066e-324
2.96439e-323
-4.94066e-324
2.96439e-323
-4.94066e-324
2.96439e-323
-4.94066e-324
2.96439e-323
-4.94066e-324
2.96439e-323
-4.94066e-324
2.96439e-323
-4.94066e-324
2.96439e-323
-4.94066e-324
2.96439e-323
-4.94066e-324
2.96439e-323
-4.94066e-324
2.96439e-323
-4.94066e-324
2.96439e-323
-4.94066e-324
2.96439e-323
-4.94066e-324
2.96439e-323
-4.94066e-324
2.96439e-323
-4.94066e-324
2.96439e-323
-4.94066e-324
2.96439e-323
-4.94066e-324
2.96439e-323
-4.94066e-324
2.96439e-323
-4.94066e-324
2.96439e-323
-4.94066e-324
2.96439e-323
-4.94066e-324
2.96439e-323
-4.94066e-324
2.96439e-323
-4.94066e-324
2.96439e-323
-4.94066e-324
9.88131e-324
2.96439e-323
5.43472e-323
7.41098e-323
9.88131e-323
1.18576e-322
1.43279e-322
1.63042e-322
1.87745e-322
2.12448e-322
2.37152e-322
2.61855e-322
2.86558e-322
3.06321e-322
3.65609e-322
5.97819e-322
5.13828e-322
-2.25788e-321
-3.5296e-320
-4.11725e-319
-4.83542e-318
-5.88732e-317
-7.27886e-316
-9.28391e-315
-1.17842e-313
-1.61703e-312
-2.14686e-311
-4.18372e-310
-7.84149e-309
-1.54874e-306
-6.66288e-305
-1.54459e-303
-2.71356e-302
-4.24426e-301
-6.03174e-300
-7.51274e-299
-8.06749e-298
-7.54953e-297
-6.40323e-296
-5.20619e-295
-2.0684e-294
-1.62845e-294
1.32572e-293
1.91926e-292
2.21967e-291
2.59563e-290
3.1439e-289
3.8899e-288
4.92619e-287
6.28898e-286
8.25231e-285
1.0884e-283
1.52187e-282
2.14994e-281
3.52547e-280
5.87473e-279
1.35364e-277
2.84965e-276
9.77918e-275
2.27937e-273
1.18718e-271
2.67342e-270
4.44636e-268
8.11203e-267
2.14623e-263
7.13937e-262
2.18356e-261
1.59075e-261
6.35604e-261
1.11608e-259
2.26055e-259
-6.84091e-259
-1.58986e-257
-3.02289e-256
-4.66961e-255
-9.92483e-254
-1.56766e-252
-3.21923e-251
-4.74357e-250
-9.20251e-249
-1.29659e-247
-2.27341e-246
-3.01234e-245
-4.61337e-244
-5.36281e-243
-9.26255e-242
-1.04434e-240
-8.61889e-239
-1.07446e-237
-5.54555e-236
-1.17361e-234
-1.02908e-233
-1.55153e-233
6.80112e-234
1.72371e-232
1.09193e-231
9.17733e-231
9.97275e-230
1.67549e-228
2.54223e-227
5.26299e-226
8.25833e-225
1.64641e-223
2.39949e-222
4.60154e-221
6.45373e-220
1.17184e-218
1.57525e-217
2.56334e-216
3.0592e-215
5.71062e-214
6.55505e-213
5.96737e-211
7.32301e-210
2.40977e-208
5.06703e-207
5.06609e-206
9.75011e-206
-2.70817e-207
-8.29188e-205
-5.22375e-204
-3.45855e-203
-2.96071e-202
-3.20771e-201
-3.76356e-200
-5.08987e-199
-6.86743e-198
-1.01206e-196
-1.41357e-195
-2.0828e-194
-2.87177e-193
-4.1074e-192
-5.4605e-191
-7.60332e-190
-9.63331e-189
-1.39982e-187
-1.75518e-186
-3.86536e-185
-5.79077e-184
-9.53762e-182
-1.81289e-180
-2.71888e-179
-1.70307e-177
-3.24102e-176
-1.69793e-175
-1.54138e-175
5.1185e-175
5.5618e-174
3.77144e-173
3.00316e-172
3.57871e-171
3.7116e-170
2.75767e-169
4.64272e-168
7.33604e-167
5.8846e-166
2.94119e-165
6.18883e-164
2.60374e-162
3.49884e-162
4.23789e-162
2.62282e-160
5.01958e-159
-3.90195e-159
-4.67688e-158
6.6799e-157
9.74714e-156
-1.62221e-155
-2.31087e-154
1.09548e-153
2.19464e-152
-1.79313e-152
-8.41077e-151
5.17652e-151
5.66297e-149
3.95967e-149
-2.55284e-147
-3.15907e-147
9.42696e-146
2.6733e-145
-2.59654e-144
-2.15947e-143
4.05961e-143
1.15041e-141
2.73363e-142
-6.08158e-140
-1.00048e-139
1.48946e-138
8.44969e-138
-2.00868e-137
-7.12531e-136
-6.84691e-136
1.87041e-134
4.95927e-134
-3.09396e-133
-7.04329e-132
-6.56943e-132
1.56289e-130
3.53094e-130
-2.42159e-129
-7.05112e-128
-1.16374e-127
9.03015e-127
4.53932e-126
-7.96309e-126
-3.96816e-124
-1.61651e-123
2.05663e-123
8.14925e-122
1.0569e-121
-1.09835e-120
-1.5937e-119
-1.42702e-119
2.74503e-118
2.61819e-117
1.51495e-117
-5.8233e-116
-5.26032e-115
-3.34362e-115
1.02431e-113
9.93743e-113
7.69221e-113
-1.55566e-111
-9.63175e-111
-1.65794e-111
2.45881e-109
3.54284e-108
5.62072e-108
-2.08449e-107
-4.34597e-106
-8.35324e-106
2.11741e-105
5.55799e-104
2.39205e-103
2.75916e-104
-5.18879e-102
-5.74892e-101
-7.31399e-101
3.23255e-100
6.34638e-99
2.30965e-98
1.08181e-99
-4.67436e-97
-5.30965e-96
-8.58721e-96
1.84564e-95
4.33679e-94
2.89851e-93
2.66143e-93
-2.03799e-92
-3.1602e-91
-1.76956e-90
-1.49362e-90
1.27275e-89
1.82408e-88
7.46139e-88
4.18644e-88
-7.4138e-87
-9.3657e-86
-4.71425e-85
-4.00534e-85
2.89754e-84
3.91382e-83
2.90015e-82
3.99643e-82
-6.52634e-82
-1.33411e-80
-1.22783e-79
-3.43262e-79
-1.14851e-79
3.59035e-78
3.80477e-77
2.13453e-76
2.31042e-76
-6.05927e-76
-9.30449e-75
-7.98537e-74
-6.14868e-73
-4.55429e-72
-3.30455e-71
-2.35867e-70
-1.66059e-69
-1.15138e-68
-7.70905e-68
-2.31293e-67
-1.67907e-67
1.07985e-66
1.12612e-65
8.13363e-65
5.37151e-64
3.42494e-63
2.14056e-62
1.31752e-61
7.99864e-61
4.79229e-60
2.83429e-59
1.65492e-58
9.54068e-58
5.43112e-57
3.05309e-56
1.69496e-55
9.29351e-55
5.03303e-54
2.69239e-53
1.42276e-52
7.42742e-52
3.83074e-51
1.95206e-50
9.82858e-50
4.88993e-49
2.40409e-48
1.16805e-47
5.60855e-47
2.66161e-46
1.24843e-45
5.78798e-45
2.6525e-44
1.20163e-43
5.38128e-43
2.38244e-42
1.04279e-41
4.51264e-41
1.93079e-40
8.16819e-40
3.41681e-39
1.4133e-38
5.78072e-38
2.33817e-37
9.35253e-37
3.69961e-36
1.44733e-35
5.59985e-35
2.14286e-34
8.11019e-34
3.03597e-33
1.1241e-32
4.11681e-32
1.49133e-31
5.34386e-31
1.89413e-30
6.64122e-30
2.30343e-29
7.90309e-29
2.68239e-28
9.00643e-28
2.99156e-27
9.83011e-27
3.19552e-26
1.02766e-25
3.26953e-25
1.02909e-24
3.20445e-24
9.87164e-24
3.00858e-23
9.0713e-23
2.70592e-22
7.98543e-22
2.3314e-21
6.73396e-21
1.92423e-20
5.43969e-20
1.52131e-19
4.20908e-19
1.15206e-18
3.11946e-18
8.3559e-18
2.21417e-17
5.804e-17
1.50499e-16
3.86033e-16
9.79468e-16
2.45822e-15
6.10252e-15
1.49845e-14
3.63925e-14
8.74185e-14
2.07686e-13
4.87986e-13
1.13394e-12
2.60582e-12
5.92177e-12
1.33074e-11
2.95704e-11
6.49713e-11
1.41146e-10
3.03163e-10
6.43761e-10
1.35143e-09
2.8045e-09
5.75293e-09
1.16646e-08
2.33759e-08
4.62975e-08
9.06169e-08
1.75264e-07
3.34946e-07
6.32447e-07
1.17979e-06
2.1741e-06
3.95743e-06
7.11482e-06
1.26325e-05
2.21488e-05
3.83441e-05
6.55372e-05
0.000110578
0.000184158
0.000302691
0.000490953
0.000785694
0.00124045
0.00193178
0.00296701
0.00449362
0.00670997
0.0098768
0.0143288
0.0204843
0.0288516
0.0400291
0.0546956
0.0735895
0.0974723
0.127076
0.163034
0.205802
0.255566
0.312159
0.374988
0.44299
0.514634
0.587968
0.660731
0.730516
0.794974
0.852035
0.900119
0.938294
0.966345
0.984789
0.994907
0.998953
0.999899
0.999997
1
1
1
1
1
1
1
1
1
1
1
1
1
1
1
1
1
1
1
1
1
1
1
1
1
1
1
1
1
1
1
1
1
1
1
1
1
1
1
1
1
1
1
1
1
1
1
1
1
1
1
1
0.999999
0.999999
0.999998
0.999996
0.999993
0.999987
0.999978
0.999962
0.999934
0.999889
0.999816
0.999697
0.999508
0.999213
0.998758
0.998066
0.99703
0.995502
0.993284
0.990115
0.98566
0.979501
0.971129
0.959945
0.945271
0.926369
0.902476
0.872862
0.836892
0.794113
0.744338
0.687735
0.624898
0.55689
0.485244
0.411912
0.339154
0.269378
0.204933
0.147886
0.0998177
0.0616596
0.0336228
0.0151928
0.00508453
0.00104487
0.000100575
3.285e-06
2.64727e-08
4.00109e-11
9.12201e-15
7.76195e-19
6.58358e-23
5.59484e-27
4.77929e-31
4.10814e-35
3.55067e-39
3.0804e-43
2.67737e-47
2.32776e-51
2.02237e-55
1.75501e-59
1.52119e-63
1.31725e-67
1.13994e-71
9.86197e-76
8.53153e-80
7.38148e-84
6.3877e-88
5.52881e-92
4.78617e-96
4.14371e-100
3.58765e-104
3.10622e-108
2.68932e-112
2.3283e-116
2.01566e-120
1.74494e-124
1.51056e-128
1.30764e-132
1.13197e-136
9.79908e-141
8.48273e-145
7.34323e-149
6.35681e-153
5.5029e-157
4.76369e-161
4.12377e-165
3.56981e-169
3.09025e-173
2.6751e-177
2.31572e-181
2.00462e-185
1.73531e-189
1.50218e-193
1.30036e-197
1.12566e-201
9.74432e-206
8.43518e-210
7.30191e-214
6.32089e-218
5.47167e-222
4.73654e-226
4.10017e-230
3.54929e-234
3.07242e-238
2.65962e-242
2.30227e-246
1.99294e-250
1.72516e-254
1.49336e-258
1.2927e-262
1.11901e-266
9.68644e-271
8.38484e-275
7.25813e-279
6.2828e-283
5.43852e-287
4.70767e-291
4.07503e-295
3.52739e-299
3.05334e-303
2.64299e-307
2.28778e-311
1.98031e-315
1.71386e-319
9.88131e-324
0
0
0
0
0
0
0
0
0
0
0
0
0
0
0
0
0
0
0
0
0
0
0
0
0
0
0
0
0
0
0
0
0
0
0
0
0
0
0
0
0
0
0
0
0
0
0
0
0
0
0
0
0
0
0
0
0
0
0
0
0
0
0
0
0
0
0
0
0
0
0
0
0
0
0
0
0
0
0
0
0
0
0
0
0
0
0
0
0
0
0
0
0
0
0
0
0
0
0
0
0
0
0
0
0
0
0
0
0
0
0
0
0
0
0
0
0
0
0
)
;

boundaryField
{
    sides
    {
        type            zeroGradient;
    }
    empty
    {
        type            empty;
    }
}


// ************************************************************************* //
