/*--------------------------------*- C++ -*----------------------------------*\
| =========                 |                                                 |
| \\      /  F ield         | OpenFOAM: The Open Source CFD Toolbox           |
|  \\    /   O peration     | Version:  2312                                  |
|   \\  /    A nd           | Website:  www.openfoam.com                      |
|    \\/     M anipulation  |                                                 |
\*---------------------------------------------------------------------------*/
FoamFile
{
    version     2.0;
    format      ascii;
    arch        "LSB;label=32;scalar=64";
    class       volScalarField;
    location    "1.2";
    object      T;
}
// * * * * * * * * * * * * * * * * * * * * * * * * * * * * * * * * * * * * * //

dimensions      [0 0 0 1 0 0 0];

internalField   nonuniform List<scalar> 
1000
(
0
0
0
0
0
0
0
0
0
0
0
0
0
0
0
0
0
0
0
0
0
0
0
0
0
0
0
0
0
0
0
0
0
0
0
0
0
0
0
0
0
0
0
0
0
0
0
0
0
0
0
0
0
0
0
0
0
0
0
0
0
0
0
0
0
0
0
0
0
0
0
0
0
0
0
0
0
0
0
0
0
0
0
0
0
0
0
0
0
0
0
0
0
0
0
0
0
0
0
0
0
0
0
0
0
0
0
0
0
0
0
0
0
0
0
0
0
0
0
0
0
0
0
0
0
0
0
0
0
0
0
0
0
0
0
0
0
0
0
0
0
0
0
0
0
0
0
0
0
0
0
0
0
0
0
0
0
0
0
0
0
0
0
0
0
0
0
0
0
0
0
0
0
0
0
0
0
0
0
0
0
0
0
0
0
0
0
0
0
0
0
0
0
0
0
0
0
0
0
0
0
0
0
0
0
0
0
0
0
0
0
0
0
0
0
0
0
0
0
0
0
0
0
0
0
0
0
0
0
0
0
0
0
0
0
0
0
0
0
0
0
0
0
0
0
0
0
0
0
0
0
0
0
0
0
0
0
0
0
0
0
0
0
0
0
0
0
0
0
0
0
0
0
0
0
0
0
0
0
0
0
0
0
0
0
0
0
0
0
0
0
0
0
0
0
0
0
0
0
0
0
0
0
0
0
0
0
0
0
0
0
0
0
0
0
0
0
0
0
0
0
0
0
0
0
0
0
0
0
0
0
0
0
0
0
0
0
0
0
0
0
0
0
0
0
0
0
0
0
0
0
0
0
0
0
0
0
0
0
0
0
0
0
0
0
0
0
0
0
0
0
0
0
0
0
0
0
0
0
0
0
0
0
0
0
0
0
0
0
0
0
0
0
0
0
0
0
0
0
0
0
0
0
0
2.68894e-65
-1.80507e-49
1.08463e-41
-6.41826e-38
1.2519e-36
8.40218e-35
1.68259e-33
2.05037e-32
1.805e-31
1.23346e-30
6.67869e-30
2.76853e-29
7.36214e-29
-2.02881e-29
-1.63026e-27
-1.15256e-26
-5.4834e-26
-2.12055e-25
-7.49744e-25
-2.69108e-24
-1.00784e-23
-3.65106e-23
-1.15076e-22
-2.83218e-22
-4.33825e-22
1.53197e-22
3.40011e-21
1.0787e-20
1.1767e-20
-5.01631e-20
-3.30261e-19
-1.05347e-18
-2.0481e-18
-1.2954e-18
7.89269e-18
3.78591e-17
9.53201e-17
1.22848e-16
-2.5968e-16
-1.35759e-15
-7.09932e-16
5.24436e-15
3.87351e-15
-1.50453e-14
-9.37266e-15
3.97317e-14
1.70669e-14
-9.92554e-14
-2.70605e-14
2.38875e-13
3.26647e-14
-5.55491e-13
-3.12082e-14
1.26739e-12
8.24488e-14
-2.89496e-12
-3.33e-13
6.54781e-12
1.43134e-12
-1.45629e-11
-5.93364e-12
3.19029e-11
2.03077e-11
-6.60447e-11
-6.33872e-11
1.21364e-10
1.85508e-10
-1.89465e-10
-4.85706e-10
1.78855e-10
1.14413e-09
2.18893e-10
-2.33418e-09
-1.8329e-09
3.9105e-09
6.31966e-09
-3.79285e-09
-1.58939e-08
-4.32485e-09
3.07961e-08
3.24211e-08
-3.32738e-08
-9.84642e-08
-2.17119e-08
1.87586e-07
2.15351e-07
-1.47674e-07
-6.01974e-07
-3.38927e-07
8.26081e-07
1.6086e-06
2.91438e-07
-2.96844e-06
-4.05744e-06
4.6067e-07
8.90272e-06
1.04938e-05
-2.458e-06
-2.48462e-05
-2.89472e-05
3.49961e-06
6.25246e-05
8.59696e-05
1.92819e-05
-0.000136253
-0.000252658
-0.000166886
0.000186268
0.000651547
0.000757268
0.000210625
-0.00103683
-0.00235252
-0.00242444
-0.000625656
0.00327664
0.00780264
0.00963587
0.00636639
-0.00365614
-0.0196465
-0.0367859
-0.0456811
-0.039071
-0.0107173
0.0447778
0.128171
0.235221
0.357687
0.485217
0.607542
0.716364
0.806486
0.876055
0.926069
0.959439
0.979962
0.991447
0.997154
0.999511
1
1
1
1
1
1
1
1
1
1
1
1
1
1
1
1
1
1
1
1
1
1
1
1
1
1
1
1
1
1
1
1
1
1
1
1
1
1
1
1
1
1
1
1
1
1
1
1
1
0.999999
0.999998
1
1
1
0.999999
0.999991
0.99999
1
1.00002
1.00003
0.999997
0.999937
0.999913
0.99998
1.00014
1.00025
1.00017
0.999816
0.99935
0.999243
0.99979
1.00104
1.00235
1.00242
1.00062
0.99672
0.992199
0.990372
0.993647
1.00367
1.01966
1.03678
1.04566
1.03902
1.01063
0.955097
0.871675
0.764609
0.642143
0.514628
0.392328
0.283534
0.193442
0.123897
0.0739027
0.0405457
0.0200315
0.00855014
0.00284538
0.000489131
2.96637e-16
2.95232e-16
2.94173e-16
2.90694e-16
2.83167e-16
2.70122e-16
2.50915e-16
2.26138e-16
1.97525e-16
1.67419e-16
1.38106e-16
1.1133e-16
8.80917e-17
6.8712e-17
5.30264e-17
4.06004e-17
3.0901e-17
2.34042e-17
1.76487e-17
1.32516e-17
9.90635e-18
7.37152e-18
5.45884e-18
4.02206e-18
2.94791e-18
2.14891e-18
1.55768e-18
1.12261e-18
8.04255e-19
5.72685e-19
4.05266e-19
2.84983e-19
1.99122e-19
1.38232e-19
9.53404e-20
6.53296e-20
4.44741e-20
3.00798e-20
2.02126e-20
1.34948e-20
8.95203e-21
5.9008e-21
3.86506e-21
2.51582e-21
1.62744e-21
1.0463e-21
6.68582e-22
4.24643e-22
2.68093e-22
1.68252e-22
1.04971e-22
6.51071e-23
4.01474e-23
2.46134e-23
1.50034e-23
9.09334e-24
5.4801e-24
3.28396e-24
1.95688e-24
1.15958e-24
6.8331e-25
4.0043e-25
2.33366e-25
1.35257e-25
7.79662e-26
4.46977e-26
2.54862e-26
1.44536e-26
8.15286e-27
4.57418e-27
2.55267e-27
1.41699e-27
7.8241e-28
4.29744e-28
2.34802e-28
1.27621e-28
6.9004e-29
3.7117e-29
1.98621e-29
1.05741e-29
5.6006e-30
2.95127e-30
1.54731e-30
8.07145e-31
4.18927e-31
2.16346e-31
1.11172e-31
5.6844e-32
2.8922e-32
1.46433e-32
7.37775e-33
3.69909e-33
1.84571e-33
9.16511e-34
4.52928e-34
2.22766e-34
1.09045e-34
5.31268e-35
2.5762e-35
1.24341e-35
5.97353e-36
2.85652e-36
1.3597e-36
6.44263e-37
3.03881e-37
1.42684e-37
6.66944e-38
3.10353e-38
1.43776e-38
6.63113e-39
3.04489e-39
1.39203e-39
6.33622e-40
2.8716e-40
1.29581e-40
5.82223e-41
2.60483e-41
1.16044e-41
5.14788e-42
2.27408e-42
1.00037e-42
4.38238e-43
1.91187e-43
8.30643e-44
3.5941e-44
1.54879e-44
6.64712e-45
2.84132e-45
1.20965e-45
5.12941e-46
2.16644e-46
9.11395e-47
3.81907e-47
1.59408e-47
6.62778e-48
2.74501e-48
1.13252e-48
4.65458e-49
1.90572e-49
7.77295e-50
3.15844e-50
1.27858e-50
5.15652e-51
2.0719e-51
8.29418e-52
3.30809e-52
1.31458e-52
5.20492e-53
2.05335e-53
8.07129e-54
3.16127e-54
1.23375e-54
4.79782e-55
1.85919e-55
7.1791e-56
2.76245e-56
1.05925e-56
4.0476e-57
1.54132e-57
5.84914e-58
2.2121e-58
8.33747e-59
3.13178e-59
1.17241e-59
4.37431e-60
1.62662e-60
6.02858e-61
2.22692e-61
8.199e-62
3.00878e-62
1.10053e-62
4.01232e-63
1.45809e-63
5.28169e-64
1.90707e-64
6.86393e-65
2.46262e-65
8.80736e-66
3.13997e-66
1.11594e-66
3.95367e-67
1.39639e-67
4.91667e-68
1.72582e-68
6.03928e-69
2.10692e-69
7.32806e-70
2.54106e-70
8.78476e-71
3.02789e-71
1.04053e-71
3.5651e-72
1.21788e-72
4.14813e-73
1.40872e-73
4.77008e-74
1.6105e-74
5.42171e-75
1.81994e-75
6.09152e-76
2.03306e-76
6.76608e-77
2.24537e-77
7.43038e-78
2.45194e-78
8.06843e-79
2.64761e-79
8.66385e-80
2.82725e-80
9.20062e-81
2.98591e-81
9.66376e-82
3.11911e-82
1.00401e-82
3.22305e-83
1.03188e-83
3.29475e-84
1.04919e-84
3.33222e-85
1.0555e-85
3.33455e-86
1.05069e-86
3.30195e-87
1.03499e-87
3.2357e-88
1.00897e-88
3.13811e-89
9.73511e-90
3.01233e-90
9.29727e-91
2.86224e-91
8.78937e-92
2.69224e-92
8.22584e-93
2.50703e-93
7.62179e-94
2.3114e-94
6.99231e-95
2.11006e-95
6.3519e-96
1.90744e-96
5.71398e-97
1.70755e-97
5.09045e-98
1.51389e-98
4.49147e-99
1.32937e-99
3.92524e-100
1.15626e-100
3.39797e-101
9.96228e-102
2.91393e-102
8.50319e-103
2.47556e-103
7.19044e-104
2.08369e-104
6.02433e-105
1.73775e-105
5.00116e-106
1.43603e-106
4.11404e-107
1.17595e-107
3.35376e-108
9.54326e-109
2.70949e-109
7.67555e-110
2.16952e-110
6.11866e-111
1.72182e-111
4.83463e-112
1.35452e-112
3.78668e-113
1.05629e-113
2.94014e-114
8.16601e-115
2.26316e-115
6.25876e-116
1.72715e-116
4.75604e-117
1.30688e-117
3.58348e-118
9.80522e-119
2.67729e-119
7.29491e-120
1.98352e-120
5.38206e-121
1.45733e-121
3.93792e-122
1.06189e-122
2.85759e-123
7.67412e-124
2.05669e-124
5.50081e-125
1.46825e-125
3.91109e-126
1.03972e-126
2.75845e-127
7.30367e-128
1.92997e-128
5.08973e-129
1.33961e-129
3.51886e-130
9.22506e-131
2.4137e-131
6.30299e-132
1.64271e-132
4.27299e-133
1.10933e-133
2.87439e-134
7.43356e-135
1.91872e-135
4.94306e-136
1.27101e-136
3.26195e-137
8.35566e-138
2.1363e-138
5.45162e-139
1.38858e-139
3.53025e-140
8.95831e-141
2.26902e-141
5.73647e-142
1.4476e-142
3.64627e-143
9.1675e-144
2.30068e-144
5.76326e-145
1.44108e-145
3.59683e-146
8.96117e-147
2.22856e-147
5.53227e-148
1.37089e-148
3.39096e-149
8.37278e-150
2.06369e-150
5.07747e-151
1.24705e-151
3.05741e-152
7.48274e-153
1.82813e-153
4.45855e-154
1.08549e-154
2.63816e-155
6.40067e-156
1.55024e-156
3.74823e-157
9.04706e-158
2.17995e-158
5.24376e-159
1.25922e-159
3.01872e-160
7.22452e-161
1.72609e-161
4.11706e-162
9.80354e-163
)
;

boundaryField
{
    sides
    {
        type            zeroGradient;
    }
    empty
    {
        type            empty;
    }
}


// ************************************************************************* //
