/*--------------------------------*- C++ -*----------------------------------*\
| =========                 |                                                 |
| \\      /  F ield         | OpenFOAM: The Open Source CFD Toolbox           |
|  \\    /   O peration     | Version:  2312                                  |
|   \\  /    A nd           | Website:  www.openfoam.com                      |
|    \\/     M anipulation  |                                                 |
\*---------------------------------------------------------------------------*/
FoamFile
{
    version     2.0;
    format      ascii;
    arch        "LSB;label=32;scalar=64";
    class       volScalarField;
    location    "3";
    object      T;
}
// * * * * * * * * * * * * * * * * * * * * * * * * * * * * * * * * * * * * * //

dimensions      [0 0 0 1 0 0 0];

internalField   nonuniform List<scalar> 
1000
(
0
0
0
0
0
0
0
0
0
0
0
0
0
0
0
0
0
0
0
0
0
0
0
0
0
0
0
0
0
0
0
0
0
0
0
0
0
0
0
0
0
0
0
0
0
0
0
0
0
0
0
0
0
0
0
0
0
0
0
0
0
0
0
0
0
0
0
0
0
0
0
0
0
0
0
0
0
0
0
0
0
0
0
0
0
0
0
0
0
0
0
0
0
0
0
0
0
0
0
0
0
0
0
0
0
0
0
0
0
0
0
0
0
0
0
0
0
0
0
0
0
0
0
0
0
0
0
0
0
0
0
0
0
0
0
0
0
0
0
0
0
0
0
0
0
0
0
0
0
0
0
0
0
0
0
0
0
0
0
0
0
0
0
0
0
0
0
0
0
0
0
0
0
0
0
0
0
0
0
0
0
0
0
0
0
0
0
0
0
0
0
0
0
0
0
0
0
0
0
0
0
0
0
0
0
0
0
0
0
0
0
0
0
0
0
0
0
0
0
0
0
0
0
0
0
0
0
0
0
0
0
0
0
0
0
0
0
0
0
0
0
0
0
0
3.80431e-322
3.94857e-320
3.62074e-318
3.30154e-316
2.9966e-314
2.70728e-312
2.43455e-310
2.17908e-308
1.94128e-306
1.72129e-304
1.51899e-302
1.33408e-300
1.16607e-298
1.01431e-296
8.78035e-295
7.56366e-293
6.48367e-291
5.53054e-289
4.69418e-287
3.96446e-285
3.33142e-283
2.78538e-281
2.31704e-279
1.91764e-277
1.57896e-275
1.2934e-273
1.054e-271
8.54436e-270
6.89026e-268
5.52709e-266
4.4101e-264
3.50008e-262
2.76293e-260
2.16926e-258
1.6939e-256
1.31548e-254
1.01599e-252
7.80335e-251
5.96005e-249
4.52669e-247
3.41866e-245
2.56721e-243
1.91682e-241
1.42299e-239
1.05027e-237
7.70671e-236
5.62194e-234
4.07695e-232
2.93901e-230
2.10604e-228
1.50007e-226
1.06199e-224
7.47272e-223
5.22593e-221
3.6321e-219
2.50867e-217
1.72188e-215
1.1744e-213
7.9591e-212
5.35953e-210
3.58579e-208
2.38352e-206
1.57401e-204
1.03259e-202
6.72925e-201
4.35608e-199
2.80089e-197
1.78873e-195
1.13455e-193
7.14668e-192
4.47062e-190
2.77709e-188
1.71297e-186
1.04911e-184
6.37936e-183
3.85122e-181
2.30812e-179
1.3732e-177
8.10949e-176
4.75353e-174
2.76551e-172
1.59677e-170
9.14935e-169
5.20226e-167
2.93508e-165
1.64302e-163
9.12506e-162
5.02766e-160
2.74792e-158
1.48978e-156
8.01095e-155
4.2723e-153
2.25955e-151
1.18504e-149
6.16258e-148
3.17741e-146
1.62418e-144
8.23013e-143
4.13388e-141
2.05803e-139
1.01542e-137
4.96491e-136
2.40549e-134
1.15474e-132
5.49177e-131
2.58732e-129
1.20741e-127
5.58063e-126
2.55442e-124
1.15781e-122
5.1961e-121
2.30867e-119
1.01542e-117
4.42059e-116
1.90466e-114
8.12095e-113
3.42608e-111
1.43001e-109
5.90438e-108
2.4113e-106
9.73902e-105
3.88962e-103
1.53592e-101
5.99572e-100
2.31347e-98
8.8221e-97
3.32432e-95
1.23763e-93
4.55163e-92
1.65335e-90
5.93076e-89
2.10055e-87
7.34443e-86
2.53459e-84
8.63187e-83
2.90046e-81
9.61417e-80
3.14307e-78
1.01322e-76
3.22014e-75
1.00872e-73
3.11383e-72
9.47003e-71
2.83685e-69
8.36847e-68
2.43036e-66
6.94705e-65
1.95397e-63
5.40636e-62
1.47108e-60
3.9354e-59
1.03473e-57
2.67308e-56
6.78275e-55
1.6899e-53
4.13259e-52
9.91597e-51
2.33363e-49
5.38449e-48
1.21757e-46
2.69707e-45
5.84989e-44
1.24183e-42
2.57881e-41
5.23603e-40
1.03892e-38
2.01333e-37
3.80847e-36
7.02786e-35
1.26431e-33
2.2159e-32
3.78097e-31
6.27605e-30
1.01265e-28
1.58691e-27
2.41316e-26
3.55754e-25
5.07934e-24
7.01611e-23
9.36534e-22
1.20659e-20
1.49844e-19
1.79124e-18
2.05802e-17
2.26891e-16
2.39602e-15
2.41902e-14
2.33001e-13
2.13625e-12
1.85966e-11
1.53287e-10
1.19272e-09
8.73092e-09
5.98986e-08
3.83493e-07
2.28029e-06
1.25239e-05
6.31387e-05
0.000290097
0.00120476
0.00447954
0.0147502
0.0424842
0.105607
0.223581
0.399163
0.600837
0.776419
0.894393
0.957516
0.98525
0.99552
0.998795
0.99971
0.999937
0.999987
0.999998
1
1
1
1
1
1
1
1
1
1
1
1
1
1
1
1
1
1
1
1
1
1
1
1
1
1
1
1
1
1
1
1
1
1
1
1
1
1
1
1
1
1
1
1
1
1
1
1
1
1
1
1
1
1
1
1
1
1
1
1
1
1
1
1
1
1
1
1
1
1
1
1
1
1
1
1
1
1
0.999998
0.999987
0.999937
0.99971
0.998795
0.99552
0.98525
0.957516
0.894393
0.776419
0.600837
0.399163
0.223581
0.105607
0.0424842
0.0147502
0.00447954
0.00120476
0.000290097
6.31387e-05
1.25239e-05
2.28029e-06
3.83493e-07
5.98986e-08
8.73092e-09
1.19272e-09
1.53287e-10
1.85966e-11
2.13625e-12
2.33001e-13
2.41902e-14
2.39602e-15
2.26891e-16
2.05802e-17
1.79124e-18
1.49844e-19
1.20659e-20
9.36534e-22
7.01611e-23
5.07934e-24
3.55754e-25
2.41316e-26
1.58691e-27
1.01265e-28
6.27605e-30
3.78097e-31
2.2159e-32
1.26431e-33
7.02786e-35
3.80847e-36
2.01333e-37
1.03892e-38
5.23603e-40
2.57881e-41
1.24183e-42
5.84989e-44
2.69707e-45
1.21757e-46
5.38449e-48
2.33363e-49
9.91597e-51
4.13259e-52
1.6899e-53
6.78275e-55
2.67308e-56
1.03473e-57
3.9354e-59
1.47108e-60
5.40636e-62
1.95397e-63
6.94705e-65
2.43036e-66
8.36847e-68
2.83685e-69
9.47003e-71
3.11383e-72
1.00872e-73
3.22014e-75
1.01322e-76
3.14307e-78
9.61417e-80
2.90046e-81
8.63187e-83
2.53459e-84
7.34443e-86
2.10055e-87
5.93076e-89
1.65335e-90
4.55163e-92
1.23763e-93
3.32432e-95
8.8221e-97
2.31347e-98
5.99572e-100
1.53592e-101
3.88962e-103
9.73902e-105
2.4113e-106
5.90438e-108
1.43001e-109
3.42608e-111
8.12095e-113
1.90466e-114
4.42059e-116
1.01542e-117
2.30867e-119
5.1961e-121
1.15781e-122
2.55442e-124
5.58063e-126
1.20741e-127
2.58732e-129
5.49177e-131
1.15474e-132
2.40549e-134
4.96491e-136
1.01542e-137
2.05803e-139
4.13388e-141
8.23013e-143
1.62418e-144
3.17741e-146
6.16258e-148
1.18504e-149
2.25955e-151
4.2723e-153
8.01095e-155
1.48978e-156
2.74792e-158
5.02766e-160
9.12506e-162
1.64302e-163
2.93508e-165
5.20226e-167
9.14935e-169
1.59677e-170
2.76551e-172
4.75353e-174
8.10949e-176
1.3732e-177
2.30812e-179
3.85122e-181
6.37936e-183
1.04911e-184
1.71297e-186
2.77709e-188
4.47062e-190
7.14668e-192
1.13455e-193
1.78873e-195
2.80089e-197
4.35608e-199
6.72925e-201
1.03259e-202
1.57401e-204
2.38352e-206
3.58579e-208
5.35953e-210
7.9591e-212
1.1744e-213
1.72188e-215
2.50867e-217
3.6321e-219
5.22593e-221
7.47272e-223
1.06199e-224
1.50007e-226
2.10604e-228
2.93901e-230
4.07695e-232
5.62194e-234
7.70671e-236
1.05027e-237
1.42299e-239
1.91682e-241
2.56721e-243
3.41866e-245
4.52669e-247
5.96005e-249
7.80335e-251
1.01599e-252
1.31548e-254
1.6939e-256
2.16926e-258
2.76293e-260
3.50008e-262
4.4101e-264
5.52709e-266
6.89026e-268
8.54436e-270
1.054e-271
1.2934e-273
1.57896e-275
1.91764e-277
2.31704e-279
2.78538e-281
3.33142e-283
3.96446e-285
4.69418e-287
5.53054e-289
6.48367e-291
7.56366e-293
8.78035e-295
1.01431e-296
1.16607e-298
1.33408e-300
1.51899e-302
1.72129e-304
1.94128e-306
2.17908e-308
2.43455e-310
2.70728e-312
2.9966e-314
3.30154e-316
3.62074e-318
3.94857e-320
3.80431e-322
0
0
0
0
0
0
0
0
0
0
0
0
0
0
0
0
0
0
0
0
0
0
0
0
0
0
0
0
0
0
0
0
0
0
0
0
0
0
0
0
0
0
0
0
0
0
0
0
0
0
0
0
0
0
0
0
0
0
0
0
0
0
0
0
0
0
0
0
0
0
0
0
0
0
0
0
0
0
0
0
0
0
0
0
0
0
0
0
0
0
0
0
0
0
0
0
0
0
0
0
0
0
0
0
0
0
0
0
0
0
0
0
0
0
0
0
0
0
0
0
0
0
0
0
0
0
0
0
0
0
0
0
0
0
0
0
0
0
0
0
0
0
0
0
0
0
0
0
0
0
0
0
0
0
0
0
0
0
0
0
0
0
0
0
0
0
0
0
0
0
0
0
0
0
0
0
0
0
0
0
0
0
0
0
0
0
0
0
0
0
0
0
0
0
0
0
0
0
0
0
0
0
0
0
0
0
0
0
0
0
0
0
0
0
0
0
0
0
0
0
0
0
0
0
0
0
0
0
0
0
0
0
0
0
0
0
0
0
0
0
0
0
0
0
)
;

boundaryField
{
    sides
    {
        type            zeroGradient;
    }
    empty
    {
        type            empty;
    }
}


// ************************************************************************* //
