/*--------------------------------*- C++ -*----------------------------------*\
| =========                 |                                                 |
| \\      /  F ield         | OpenFOAM: The Open Source CFD Toolbox           |
|  \\    /   O peration     | Version:  2312                                  |
|   \\  /    A nd           | Website:  www.openfoam.com                      |
|    \\/     M anipulation  |                                                 |
\*---------------------------------------------------------------------------*/
FoamFile
{
    version     2.0;
    format      ascii;
    arch        "LSB;label=32;scalar=64";
    class       volScalarField;
    location    "2.4";
    object      T;
}
// * * * * * * * * * * * * * * * * * * * * * * * * * * * * * * * * * * * * * //

dimensions      [0 0 0 1 0 0 0];

internalField   nonuniform List<scalar> 
1000
(
0
0
0
0
0
0
0
0
0
0
0
0
0
0
0
0
0
0
0
0
0
0
0
0
0
0
0
0
0
0
0
0
0
0
0
0
0
0
0
0
0
0
0
0
0
0
0
0
0
0
0
0
0
0
0
0
0
0
0
0
0
0
0
0
0
0
0
0
0
0
0
0
0
0
0
0
0
0
0
0
0
0
0
0
0
0
0
0
0
0
0
0
0
0
0
0
0
0
0
0
0
0
0
0
0
0
0
0
0
0
0
0
0
0
0
0
0
0
0
0
0
0
0
0
0
0
0
0
0
0
0
0
0
0
0
0
0
0
0
0
0
0
0
0
0
0
0
0
0
0
0
0
0
0
0
0
0
0
0
0
0
0
0
0
0
0
0
0
0
0
0
0
0
-4.94066e-324
2.96439e-323
-4.94066e-324
2.96439e-323
-4.94066e-324
2.96439e-323
-4.94066e-324
2.96439e-323
-4.94066e-324
2.96439e-323
-4.94066e-324
2.96439e-323
-4.94066e-324
2.96439e-323
-4.94066e-324
2.96439e-323
-4.94066e-324
2.96439e-323
-4.94066e-324
2.96439e-323
-4.94066e-324
2.96439e-323
-4.94066e-324
2.96439e-323
-4.94066e-324
2.96439e-323
-4.94066e-324
2.96439e-323
-4.94066e-324
2.96439e-323
-4.94066e-324
2.96439e-323
-4.94066e-324
2.96439e-323
-4.94066e-324
2.96439e-323
-4.94066e-324
2.96439e-323
-4.94066e-324
2.96439e-323
-4.94066e-324
2.96439e-323
-4.94066e-324
2.96439e-323
-4.94066e-324
2.96439e-323
-4.94066e-324
2.96439e-323
-4.94066e-324
2.96439e-323
-4.94066e-324
2.96439e-323
-4.94066e-324
2.96439e-323
-4.94066e-324
2.96439e-323
-4.94066e-324
2.96439e-323
-4.94066e-324
2.96439e-323
-4.94066e-324
2.96439e-323
-4.94066e-324
2.96439e-323
-4.94066e-324
2.96439e-323
-4.94066e-324
4.94066e-323
-5.33591e-322
7.17383e-321
-9.1249e-320
1.18137e-318
-1.51056e-317
1.95504e-316
-2.50036e-315
3.23557e-314
-4.13841e-313
5.35521e-312
-6.84939e-311
8.86326e-310
-1.1337e-308
1.46677e-307
-1.87682e-306
2.42669e-305
-3.10821e-304
4.01297e-303
-5.14993e-302
6.63371e-301
-8.53449e-300
1.0966e-298
-1.41409e-297
1.81326e-296
-2.34225e-295
2.9993e-294
-3.87841e-293
4.96253e-292
-6.42039e-291
8.21262e-290
-1.06268e-288
1.35925e-287
-1.75885e-286
2.24964e-285
-2.91113e-284
3.72331e-283
-4.81811e-282
6.16283e-281
-7.97335e-280
1.02025e-278
-1.31914e-277
1.68964e-276
-2.18145e-275
2.79951e-274
-3.60611e-273
4.63934e-272
-5.96115e-271
7.687e-270
-9.85696e-269
1.27325e-267
-1.63042e-266
2.10831e-265
-2.69764e-264
3.49015e-263
-4.46437e-262
5.77677e-261
-7.38883e-260
9.56125e-259
-1.22289e-257
1.58252e-256
-2.02397e-255
2.61916e-254
-3.35004e-253
4.33459e-252
-5.54532e-251
7.17289e-250
-9.18038e-249
1.18675e-247
-1.52016e-246
1.96308e-245
-2.51752e-244
3.2472e-243
-4.16885e-242
5.37221e-241
-6.9021e-240
8.88906e-239
-1.14267e-237
1.47078e-236
-1.89187e-235
2.43337e-234
-3.13238e-233
4.02619e-232
-5.18555e-231
6.66294e-230
-8.58264e-229
1.10286e-227
-1.42033e-226
1.82559e-225
-2.35051e-224
3.02175e-223
-3.89015e-222
5.0014e-221
-6.43841e-220
8.27806e-219
-1.06557e-217
1.37015e-216
-1.76359e-215
2.26769e-214
-2.91901e-213
3.75313e-212
-4.83119e-211
6.21229e-210
-7.99467e-209
1.02846e-207
-1.32276e-206
1.70278e-205
-2.18863e-204
2.81888e-203
-3.62199e-202
4.66553e-201
-5.9952e-200
7.72092e-199
-9.92394e-198
1.27774e-196
-1.64262e-195
2.11471e-194
-2.71874e-193
3.49997e-192
-4.49993e-191
5.79251e-190
-7.44812e-189
9.58691e-188
-1.23273e-186
1.58676e-185
-2.04024e-184
2.6262e-183
-3.37705e-182
4.34588e-181
-5.59076e-180
7.19056e-179
-9.25635e-178
1.18973e-176
-1.53239e-175
1.9688e-174
-2.53646e-173
3.25848e-172
-4.19797e-171
5.39335e-170
-6.94768e-169
8.92692e-168
-1.14986e-166
1.47754e-165
-1.90307e-164
2.44553e-163
-3.14969e-162
4.04763e-161
-5.21301e-160
6.69917e-159
-8.62808e-158
1.10878e-156
-1.42799e-155
1.83528e-154
-2.36309e-153
3.03827e-152
-3.90992e-151
5.03041e-150
-6.46897e-149
8.32843e-148
-1.07041e-146
1.37866e-145
-1.77147e-144
2.28189e-143
-2.93197e-142
3.77663e-141
-4.85288e-140
6.25035e-139
-8.03245e-138
1.03442e-136
-1.32955e-135
1.71192e-134
-2.2007e-133
2.83318e-132
-3.64261e-131
4.68893e-130
-6.02903e-129
7.76062e-128
-5.76777e-128
-3.38985e-126
5.08351e-125
3.6025e-125
-2.41076e-123
1.27682e-122
9.16613e-122
-1.67091e-120
-1.97395e-120
8.27515e-119
-1.15436e-119
-4.02935e-117
7.23875e-117
1.86674e-115
-6.71444e-115
-9.06438e-114
4.14784e-113
4.26789e-112
-2.05312e-111
-2.28349e-110
8.08037e-110
1.1695e-108
-2.52623e-108
-6.46027e-107
3.91917e-107
3.45637e-105
1.80772e-105
-1.7087e-103
-2.4001e-103
5.34804e-102
2.11983e-101
-1.06875e-100
-1.50469e-99
3.70435e-100
8.44999e-98
1.24712e-97
-1.83434e-96
-1.14817e-95
1.68203e-95
7.97333e-94
9.9575e-94
-1.51303e-92
-1.24739e-91
2.31921e-92
5.6454e-90
1.49801e-89
-5.31465e-89
-1.33324e-87
-1.6159e-87
1.80608e-86
2.28892e-85
1.79646e-85
-4.32889e-84
-3.88708e-83
-2.2577e-83
8.05883e-82
6.89225e-81
4.39403e-81
-1.23245e-79
-1.36862e-78
-1.33485e-78
1.47099e-77
2.2657e-76
3.36046e-76
-1.3489e-75
-2.91464e-74
-9.36032e-74
3.73717e-74
2.72479e-72
2.3727e-71
2.41404e-71
-1.68051e-70
-2.85172e-69
-1.03752e-68
-1.81084e-69
1.75791e-67
1.97772e-66
3.65074e-66
-4.53591e-66
-1.23943e-64
-1.3907e-63
-1.37859e-62
-1.30913e-61
-1.21295e-60
-1.09581e-59
-8.68892e-59
-1.76568e-58
4.25738e-59
3.01244e-57
3.00925e-56
2.53418e-55
2.02224e-54
1.56723e-53
1.187e-52
8.80182e-52
6.39419e-51
4.55242e-50
3.17727e-49
2.1743e-48
1.45926e-47
9.60674e-47
6.20495e-46
3.93278e-45
2.44646e-44
1.49392e-43
8.95663e-43
5.27298e-42
3.04882e-41
1.73155e-40
9.66118e-40
5.29636e-39
2.85322e-38
1.51064e-37
7.86155e-37
4.02188e-36
2.0229e-35
1.00044e-34
4.86552e-34
2.32719e-33
1.09482e-32
5.0664e-32
2.30647e-31
1.03305e-30
4.55261e-30
1.97423e-29
8.42496e-29
3.53836e-28
1.46262e-27
5.9509e-27
2.38334e-26
9.39654e-26
3.64714e-25
1.39368e-24
5.24349e-24
1.94244e-23
7.08536e-23
2.54497e-22
9.00173e-22
3.1355e-21
1.07558e-20
3.63362e-20
1.20896e-19
3.96163e-19
1.27858e-18
4.06431e-18
1.27249e-17
3.92402e-17
1.19186e-16
3.56566e-16
1.05068e-15
3.04944e-15
8.71736e-15
2.45449e-14
6.80681e-14
1.8592e-13
5.00147e-13
1.32511e-12
3.4576e-12
8.88495e-12
2.24841e-11
5.60302e-11
1.37491e-10
3.3221e-10
7.9034e-10
1.85121e-09
4.26884e-09
9.69058e-09
2.16543e-08
4.76276e-08
1.031e-07
2.19639e-07
4.60434e-07
9.4971e-07
1.92723e-06
3.84721e-06
7.55402e-06
1.45873e-05
2.76997e-05
5.17153e-05
9.49166e-05
0.000171227
0.000303556
0.000528765
0.00090482
0.00152072
0.00250978
0.00406651
0.0064671
0.0100923
0.015451
0.0232
0.034156
0.0492911
0.0697049
0.0965656
0.131013
0.174024
0.226246
0.287818
0.358195
0.436023
0.519097
0.604431
0.688469
0.767417
0.837684
0.896329
0.941452
0.972458
0.990292
0.997856
0.999772
0.999992
1
1
1
1
1
1
1
1
1
1
1
1
1
1
1
1
1
1
1
1
1
1
1
1
1
1
1
1
1
1
1
1
1
1
1
1
1
1
1
1
1
1
1
1
1
1
1
1
1
1
1
1
1
1
1
1
1
1
1
0.999999
0.999998
0.999996
0.999992
0.999985
0.999972
0.999948
0.999905
0.999829
0.999696
0.999471
0.999094
0.998477
0.997487
0.995929
0.993526
0.989898
0.984535
0.97678
0.965817
0.950673
0.930248
0.903374
0.868912
0.825886
0.773648
0.712063
0.641674
0.563839
0.480762
0.395431
0.311402
0.232468
0.162221
0.103597
0.0584958
0.0275108
0.00969315
0.0021395
0.000227322
8.44094e-06
7.93862e-08
1.4294e-10
3.93853e-14
3.38589e-18
2.88755e-22
2.45426e-26
2.08736e-30
1.78128e-34
1.52691e-38
1.31447e-42
1.13522e-46
9.82245e-51
8.50433e-55
7.36138e-59
6.36749e-63
5.50305e-67
4.75231e-71
4.10167e-75
3.53896e-79
3.0531e-83
2.63403e-87
2.27274e-91
1.96128e-95
1.69271e-99
1.46105e-103
1.26115e-107
1.08862e-111
9.39671e-116
8.11084e-120
7.00071e-124
6.04235e-128
5.21506e-132
4.50097e-136
3.88462e-140
3.35266e-144
2.89353e-148
2.49727e-152
2.15527e-156
1.8601e-160
1.60535e-164
1.38548e-168
1.19572e-172
1.03194e-176
8.90583e-181
7.68587e-185
6.63299e-189
5.72431e-193
4.94009e-197
4.26328e-201
3.67918e-205
3.17509e-209
2.74006e-213
2.36463e-217
2.04062e-221
1.76101e-225
1.51971e-229
1.31146e-233
1.13175e-237
9.76664e-242
8.42826e-246
7.27327e-250
6.27653e-254
5.41638e-258
4.67409e-262
4.03352e-266
3.48073e-270
3.00368e-274
2.59201e-278
2.23675e-282
1.93018e-286
1.66562e-290
1.43731e-294
1.24029e-298
1.07028e-302
9.23563e-307
7.96955e-311
6.877e-315
5.93378e-319
4.44659e-323
0
0
0
0
0
0
0
0
0
0
0
0
0
0
0
0
0
0
0
0
0
0
0
0
0
0
0
0
0
0
0
0
0
0
0
0
0
0
0
0
0
0
0
0
0
0
0
0
0
0
0
0
0
0
0
0
0
0
0
0
0
0
0
0
0
0
0
0
0
0
0
0
0
0
0
0
0
0
0
0
0
0
0
0
0
0
0
0
0
0
0
0
0
0
0
0
0
0
0
0
0
0
0
0
0
0
0
0
0
0
0
0
0
0
0
0
0
0
0
0
0
0
0
0
0
0
0
0
0
0
0
0
0
0
0
0
0
0
0
0
0
0
0
0
0
0
0
0
0
0
0
0
0
0
0
0
0
0
0
0
0
0
0
0
0
0
0
0
0
0
0
0
0
0
0
0
0
0
0
0
0
0
0
0
0
0
0
0
0
0
0
)
;

boundaryField
{
    sides
    {
        type            zeroGradient;
    }
    empty
    {
        type            empty;
    }
}


// ************************************************************************* //
