/*--------------------------------*- C++ -*----------------------------------*\
| =========                 |                                                 |
| \\      /  F ield         | OpenFOAM: The Open Source CFD Toolbox           |
|  \\    /   O peration     | Version:  2312                                  |
|   \\  /    A nd           | Website:  www.openfoam.com                      |
|    \\/     M anipulation  |                                                 |
\*---------------------------------------------------------------------------*/
FoamFile
{
    version     2.0;
    format      ascii;
    arch        "LSB;label=32;scalar=64";
    class       volScalarField;
    location    "2.3";
    object      T;
}
// * * * * * * * * * * * * * * * * * * * * * * * * * * * * * * * * * * * * * //

dimensions      [0 0 0 1 0 0 0];

internalField   nonuniform List<scalar> 
1000
(
0
0
0
0
0
0
0
0
0
0
0
0
0
0
0
0
0
0
0
0
0
0
0
0
0
0
0
0
0
0
0
0
0
0
0
0
0
0
0
0
0
0
0
0
0
0
0
0
0
0
0
0
0
0
0
0
0
0
0
0
0
0
0
0
0
0
0
0
0
0
0
0
0
0
0
0
0
0
0
0
0
0
0
0
0
0
0
0
0
0
0
0
0
0
0
0
0
0
0
0
0
0
0
0
0
0
0
0
0
0
0
0
0
0
0
0
0
0
0
0
0
0
0
0
0
0
0
0
0
0
0
0
0
0
0
0
0
0
0
0
0
0
0
0
0
0
0
0
0
0
0
0
0
0
0
0
0
0
0
0
0
0
0
0
0
0
0
0
0
0
0
0
0
0
0
0
0
0
0
0
0
0
0
0
0
0
0
0
0
0
0
0
0
0
0
0
0
0
0
0
0
0
0
0
0
0
0
0
0
0
0
0
0
0
0
0
0
0
0
0
0
0
0
0
0
0
0
0
0
0
0
0
0
0
0
0
0
0
0
0
0
0
0
0
0
0
0
0
0
0
0
0
0
0
0
0
0
0
0
0
0
0
0
0
0
0
0
0
0
0
0
0
0
0
0
0
0
0
0
0
0
0
0
0
0
0
0
0
0
0
0
0
0
0
0
0
0
0
0
0
0
0
0
0
0
0
0
0
0
0
0
0
0
0
0
0
0
0
0
0
0
0
0
0
0
0
0
0
0
0
0
0
0
0
0
0
0
0
0
0
0
0
0
0
0
0
0
0
0
0
0
0
0
0
0
0
0
0
0
0
0
0
0
0
0
0
0
0
0
0
0
0
0
0
0
0
0
0
0
0
0
0
0
0
0
0
0
0
0
0
0
0
0
0
0
0
0
0
0
0
0
0
0
0
1.0437e-96
-7.0063e-81
4.20995e-73
-2.46174e-69
-1.24761e-67
5.77809e-67
2.70376e-64
1.36503e-62
4.23549e-61
9.78883e-60
1.82103e-58
2.84644e-57
3.84295e-56
4.56857e-55
4.85074e-54
4.64961e-53
4.05696e-52
3.24292e-51
2.38628e-50
1.62206e-49
1.02072e-48
5.95027e-48
3.20953e-47
1.59545e-46
7.24436e-46
2.94832e-45
1.02872e-44
2.68156e-44
1.51535e-44
-4.31896e-43
-4.05202e-42
-2.61107e-41
-1.42758e-40
-7.04732e-40
-3.22811e-39
-1.39215e-38
-5.70129e-38
-2.22929e-37
-8.35219e-37
-3.00539e-36
-1.04036e-35
-3.46892e-35
-1.11534e-34
-3.46203e-34
-1.03891e-33
-3.01964e-33
-8.52148e-33
-2.3421e-32
-6.29292e-32
-1.6598e-31
-4.31498e-31
-1.10921e-30
-2.82382e-30
-7.11481e-30
-1.7688e-29
-4.31727e-29
-1.02802e-28
-2.37124e-28
-5.25877e-28
-1.11247e-27
-2.22531e-27
-4.16616e-27
-7.20743e-27
-1.13397e-26
-1.59628e-26
-2.02466e-26
-2.66674e-26
-5.42348e-26
-1.75238e-25
-5.99366e-25
-1.83506e-24
-4.93811e-24
-1.17608e-23
-2.48462e-23
-4.60335e-23
-7.18347e-23
-8.22951e-23
-1.90962e-23
2.498e-22
9.73173e-22
2.53851e-21
5.39742e-21
9.74188e-21
1.46824e-20
1.66153e-20
6.56793e-21
-3.31764e-20
-1.31574e-19
-3.26356e-19
-6.48693e-19
-1.08261e-18
-1.4842e-18
-1.45041e-18
-1.45534e-19
3.85637e-18
1.25556e-17
2.80248e-17
5.08725e-17
7.71879e-17
9.41151e-17
7.44232e-17
-4.41866e-17
-4.25704e-16
-1.21624e-15
-2.10284e-15
-1.17002e-15
5.10404e-15
1.13133e-14
3.13064e-15
-2.5172e-14
-3.27288e-14
2.16557e-14
9.13089e-14
4.03962e-14
-1.56018e-13
-2.25924e-13
1.07224e-13
5.63533e-13
3.25379e-13
-8.35599e-13
-1.47768e-12
2.03119e-13
3.21361e-12
2.83403e-12
-3.41792e-12
-9.22821e-12
-3.23973e-12
1.51303e-11
2.26236e-11
-4.35062e-12
-5.05454e-11
-4.80286e-11
4.11309e-11
1.45089e-10
9.1517e-11
-1.70703e-10
-3.89099e-10
-1.57448e-10
5.71376e-10
1.00956e-09
2.41419e-10
-1.66806e-09
-2.6274e-09
-4.41181e-10
4.55585e-09
6.95741e-09
1.31776e-09
-1.15918e-08
-1.87295e-08
-5.83035e-09
2.72318e-08
5.06101e-08
2.59306e-08
-5.58677e-08
-1.34433e-07
-1.03208e-07
8.71178e-08
3.35355e-07
3.56954e-07
-1.20532e-08
-7.03513e-07
-1.115e-06
-6.00096e-07
1.03276e-06
2.9123e-06
2.97956e-06
1.2832e-07
-5.32313e-06
-9.58065e-06
-7.60977e-06
3.16076e-06
1.99502e-05
3.02782e-05
2.13705e-05
-1.29036e-05
-6.41305e-05
-9.76694e-05
-7.70143e-05
1.88832e-05
0.000176516
0.000318714
0.000318237
0.000110176
-0.000336459
-0.000899324
-0.00125805
-0.00109566
-0.000201686
0.00147788
0.00358801
0.00523048
0.00520864
0.00294049
-0.00232031
-0.0104166
-0.0199835
-0.0282463
-0.0307372
-0.0253486
-0.00866152
0.0224704
0.0697597
0.133204
0.211012
0.299836
0.395237
0.492313
0.586329
0.673264
0.750181
0.815381
0.868369
0.909657
0.940484
0.962511
0.977541
0.987302
0.993306
0.996775
0.998634
0.999537
0.999912
1
1
1
1
1
1
1
1
1
1
1
1
1
1
1
1
1
1
1
1
1
1
1
1
1
1
1
1
1
1
1
1
1
1
1
1
1
1
1
1
1
0.999999
0.999997
0.999997
1
1.00001
1.00001
1.00001
0.999997
0.99998
0.99997
0.999979
1.00001
1.00006
1.0001
1.00008
0.999981
0.999824
0.999682
0.999683
0.999891
1.00034
1.0009
1.00126
1.00109
1.0002
0.998521
0.996411
0.99477
0.994794
0.997067
1.00233
1.01043
1.01999
1.02824
1.03072
1.02532
1.00861
0.977454
0.930145
0.866685
0.788865
0.700037
0.604637
0.507569
0.413566
0.326645
0.249745
0.184561
0.131588
0.0903125
0.0594955
0.0374758
0.0224508
0.012693
0.00669194
0.00322421
0.00136533
0.000462396
8.77455e-05
2.08633e-07
2.42317e-16
2.39403e-16
2.32501e-16
2.21982e-16
2.08637e-16
1.93288e-16
1.76691e-16
1.59513e-16
1.42318e-16
1.25569e-16
1.09624e-16
9.47468e-17
8.11087e-17
6.88051e-17
5.7866e-17
4.82692e-17
3.99531e-17
3.28283e-17
2.67883e-17
2.17177e-17
1.74993e-17
1.40193e-17
1.11705e-17
8.85537e-18
6.98634e-18
5.48677e-18
4.29053e-18
3.34134e-18
2.59194e-18
2.00304e-18
1.5423e-18
1.18333e-18
9.04772e-19
6.89436e-19
5.2359e-19
3.96319e-19
2.98996e-19
2.24831e-19
1.68509e-19
1.25881e-19
9.37275e-20
6.9557e-20
5.14489e-20
3.79285e-20
2.7868e-20
2.04074e-20
1.48939e-20
1.08332e-20
7.85293e-21
5.67316e-21
4.08444e-21
2.93055e-21
2.09542e-21
1.49311e-21
1.06026e-21
7.5028e-22
5.29086e-22
3.71808e-22
2.60374e-22
1.81703e-22
1.26361e-22
8.75681e-23
6.04731e-23
4.16163e-23
2.85396e-23
1.95037e-23
1.32823e-23
9.01401e-24
6.0961e-24
4.10845e-24
2.75929e-24
1.84678e-24
1.23178e-24
8.18753e-25
5.42351e-25
3.58029e-25
2.35543e-25
1.54433e-25
1.0091e-25
6.57131e-26
4.26484e-26
2.7586e-26
1.77834e-26
1.14258e-26
7.31659e-27
4.66966e-27
2.97044e-27
1.88331e-27
1.19012e-27
7.49613e-28
4.70611e-28
2.94491e-28
1.83684e-28
1.142e-28
7.07715e-29
4.37176e-29
2.69193e-29
1.65229e-29
1.01095e-29
6.16586e-30
3.74877e-30
2.27204e-30
1.37272e-30
8.26786e-31
4.96422e-31
2.97139e-31
1.77307e-31
1.05476e-31
6.25529e-32
3.69837e-32
2.17996e-32
1.28104e-32
7.50522e-33
4.38379e-33
2.55286e-33
1.48217e-33
8.57969e-34
4.95162e-34
2.84925e-34
1.63465e-34
9.35049e-35
5.3329e-35
3.03261e-35
1.71947e-35
9.72089e-36
5.47963e-36
3.07988e-36
1.72608e-36
9.64565e-37
5.37468e-37
2.98626e-37
1.65447e-37
9.14009e-38
5.03508e-38
2.76586e-38
1.51505e-38
8.27555e-39
4.5076e-39
2.44837e-39
1.32615e-39
7.16309e-40
3.85833e-40
2.0725e-40
1.11017e-40
5.93045e-41
3.15931e-41
1.67844e-41
8.89274e-42
4.69874e-42
2.47598e-42
1.30118e-42
6.81953e-43
3.56453e-43
1.85817e-43
9.6606e-44
5.00916e-44
2.59042e-44
1.33605e-44
6.87267e-45
3.52601e-45
1.80426e-45
9.20821e-46
4.68723e-46
2.37971e-46
1.20505e-46
6.08637e-47
3.06612e-47
1.54064e-47
7.72143e-48
3.85995e-48
1.92467e-48
9.57247e-49
4.74886e-49
2.34993e-49
1.15991e-49
5.71084e-50
2.8047e-50
1.37399e-50
6.7143e-51
3.27292e-51
1.59145e-51
7.71928e-52
3.73499e-52
1.80274e-52
8.67987e-53
4.16899e-53
1.99752e-53
9.54761e-54
4.55246e-54
2.16545e-54
1.02755e-54
4.86427e-55
2.29715e-55
1.08224e-55
5.08659e-56
2.38505e-56
1.11568e-56
5.20662e-57
2.4241e-57
1.12597e-57
5.21777e-58
2.4123e-58
1.11267e-58
5.12028e-59
2.35081e-59
1.07681e-59
4.92109e-60
2.24382e-60
1.02076e-60
4.63303e-61
2.09808e-61
9.47966e-62
4.27349e-62
1.92218e-62
8.62637e-63
3.86268e-63
1.72576e-63
7.69312e-64
3.42185e-64
1.51864e-64
6.72499e-65
2.97146e-65
1.31007e-65
5.76325e-66
2.52983e-66
1.10808e-66
4.84289e-67
2.11202e-67
9.1908e-68
3.99092e-68
1.72926e-68
7.4768e-69
3.22585e-69
1.38883e-69
5.96662e-70
2.55793e-70
1.09429e-70
4.67153e-71
1.9901e-71
8.46019e-72
3.58904e-72
1.5194e-72
6.41892e-73
2.70615e-73
1.13853e-73
4.78017e-74
2.00285e-74
8.37458e-75
3.49454e-75
1.45523e-75
6.0477e-76
2.50824e-76
1.03817e-76
4.28837e-77
1.76784e-77
7.27313e-78
2.98629e-78
1.2237e-78
5.00444e-79
2.04255e-79
8.32016e-80
3.38246e-80
1.37239e-80
5.5574e-81
2.24602e-81
9.05959e-82
3.64718e-82
1.46542e-82
5.87657e-83
2.35206e-83
9.39581e-84
3.74616e-84
1.49075e-84
)
;

boundaryField
{
    sides
    {
        type            zeroGradient;
    }
    empty
    {
        type            empty;
    }
}


// ************************************************************************* //
