/*--------------------------------*- C++ -*----------------------------------*\
| =========                 |                                                 |
| \\      /  F ield         | OpenFOAM: The Open Source CFD Toolbox           |
|  \\    /   O peration     | Version:  2312                                  |
|   \\  /    A nd           | Website:  www.openfoam.com                      |
|    \\/     M anipulation  |                                                 |
\*---------------------------------------------------------------------------*/
FoamFile
{
    version     2.0;
    format      ascii;
    arch        "LSB;label=32;scalar=64";
    class       volScalarField;
    location    "3.9";
    object      T;
}
// * * * * * * * * * * * * * * * * * * * * * * * * * * * * * * * * * * * * * //

dimensions      [0 0 0 1 0 0 0];

internalField   nonuniform List<scalar> 
1000
(
2.54772e-297
-6.20879e-297
4.83771e-296
-3.28043e-295
2.23736e-294
-1.52005e-293
1.02938e-292
-6.94815e-292
4.67445e-291
-3.13441e-290
2.09479e-289
-1.39533e-288
9.26322e-288
-6.12899e-287
4.04159e-286
-2.65611e-285
1.73967e-284
-1.13555e-283
7.38682e-283
-4.78871e-282
3.09372e-281
-1.99177e-280
1.27787e-279
-8.16994e-279
5.20509e-278
-3.30452e-277
2.09052e-276
-1.31783e-275
8.27778e-275
-5.18102e-274
3.23113e-273
-2.00783e-272
1.24315e-271
-7.66901e-271
4.71375e-270
-2.88667e-269
1.76127e-268
-1.07064e-267
6.48401e-267
-3.91219e-266
2.3516e-265
-1.40821e-264
8.40082e-264
-4.99254e-263
2.95569e-262
-1.74311e-261
1.02402e-260
-5.99248e-260
3.49308e-259
-2.02817e-258
1.17297e-257
-6.75694e-257
3.87687e-256
-2.2155e-255
1.261e-254
-7.14821e-254
4.03565e-253
-2.26909e-252
1.27059e-251
-7.08534e-251
3.93469e-250
-2.17592e-249
1.19825e-248
-6.57079e-248
3.58788e-247
-1.95074e-246
1.05607e-245
-5.69251e-245
3.05509e-244
-1.63245e-243
8.68438e-243
-4.59951e-242
2.42518e-241
-1.27299e-240
6.65185e-240
-3.46005e-239
1.79156e-238
-9.23371e-238
4.73701e-237
-2.4188e-236
1.22928e-235
-6.2179e-235
3.13012e-234
-1.56815e-233
7.8183e-233
-3.87896e-232
1.91506e-231
-9.40798e-231
4.59876e-230
-2.23666e-229
1.08232e-228
-5.21061e-228
2.49564e-227
-1.1891e-226
5.63606e-226
-2.65727e-225
1.24618e-224
-5.81279e-224
2.69669e-223
-1.24422e-222
5.70899e-222
-2.60493e-221
1.18191e-220
-5.33208e-220
2.39172e-219
-1.0666e-218
4.7287e-218
-2.08403e-217
9.12977e-217
-3.9754e-216
1.72043e-215
-7.39942e-215
3.1625e-214
-1.34308e-213
5.66733e-213
-2.37588e-212
9.89468e-212
-4.0933e-211
1.6819e-210
-6.86339e-210
2.78129e-209
-1.11913e-208
4.47085e-208
-1.77308e-207
6.9798e-207
-2.72697e-206
1.05727e-205
-4.0672e-205
1.55221e-204
-5.87599e-204
2.20608e-203
-8.21284e-203
3.03124e-202
-1.10897e-201
4.02068e-201
-1.44433e-200
5.13944e-200
-1.81109e-199
6.31855e-199
-2.18183e-198
7.45433e-198
-2.519e-197
8.4161e-197
-2.77889e-196
9.06359e-196
-2.91856e-195
9.27287e-195
-2.90497e-194
8.96622e-194
-2.7241e-193
8.13799e-193
-2.38747e-192
6.86772e-192
-1.93332e-191
5.31316e-191
-1.42091e-190
3.6817e-190
-9.1852e-190
2.18552e-189
-4.88156e-189
9.93162e-189
-1.71434e-188
1.92694e-188
1.85809e-188
-2.20888e-187
9.6853e-187
-3.30086e-186
9.75938e-186
-2.57899e-185
6.08579e-185
-1.24342e-184
1.97994e-184
-1.3048e-184
-6.8445e-184
4.13982e-183
-1.5219e-182
4.4972e-182
-1.12468e-181
2.33946e-181
-3.58439e-181
1.38317e-181
1.71179e-180
-8.86221e-180
2.97861e-179
-7.9238e-179
1.68856e-178
-2.54075e-178
5.40192e-179
1.41471e-177
-6.75256e-177
2.12032e-176
-5.11819e-176
9.08314e-176
-7.16919e-176
-2.72135e-175
1.66804e-174
-5.57741e-174
1.36451e-173
-2.3481e-173
1.38791e-173
9.16059e-173
-4.84883e-172
1.49299e-171
-3.26584e-171
4.31019e-171
2.70674e-171
-3.91434e-170
1.47459e-169
-3.67341e-169
5.89258e-169
-9.90531e-170
-3.35883e-168
1.44875e-167
-3.80644e-167
6.32889e-167
-1.52193e-167
-3.41202e-166
1.47484e-165
-3.76297e-165
5.70527e-165
1.11888e-165
-4.05946e-164
1.53385e-163
-3.46946e-163
3.90373e-163
6.67127e-163
-5.05346e-162
1.53403e-161
-2.72538e-161
7.99693e-162
1.40717e-160
-5.84796e-160
1.32931e-159
-1.34117e-159
-3.2935e-159
2.06745e-158
-5.62103e-158
7.87782e-158
6.05735e-158
-7.12606e-157
2.22126e-156
-3.63082e-156
-6.81587e-157
2.49806e-155
-8.51632e-155
1.48588e-154
2.61394e-157
-9.19394e-154
3.22611e-153
-5.5994e-153
-4.14858e-154
3.59132e-152
-1.21106e-151
1.94258e-151
8.1187e-152
-1.46692e-150
4.45478e-150
-5.98454e-150
-7.24072e-150
6.06422e-149
-1.56459e-148
1.45303e-148
4.77169e-148
-2.43912e-147
5.0062e-147
-1.33125e-147
-2.61043e-146
9.13856e-146
-1.3207e-145
-1.3573e-145
1.22459e-144
-3.00728e-144
1.96127e-144
1.20571e-143
-4.88814e-143
7.69912e-143
5.94714e-143
-6.41977e-142
1.57485e-141
-8.66694e-142
-6.84445e-141
2.5432e-140
-3.39549e-140
-5.23743e-140
3.54719e-139
-7.14248e-139
-5.54558e-140
4.40226e-138
-1.21867e-137
8.34347e-138
4.87413e-137
-1.85535e-136
2.27126e-136
4.68635e-136
-2.62593e-135
4.40113e-135
3.52659e-135
-3.53881e-134
7.40681e-134
1.05224e-134
-4.62114e-133
1.15342e-132
-3.09974e-133
-5.93696e-132
1.71288e-131
-9.28615e-132
-7.61516e-131
2.46812e-130
-1.77899e-130
-9.89188e-130
3.48779e-129
-2.8669e-129
-1.31736e-128
4.86415e-128
-4.14521e-128
-1.8126e-127
6.71288e-127
-5.45798e-127
-2.57898e-126
9.16205e-126
-6.4453e-126
-3.77076e-125
1.23187e-124
-6.39515e-125
-5.60164e-124
1.61947e-123
-4.03548e-124
-8.34013e-123
2.0567e-122
2.71436e-123
-1.22711e-121
2.47466e-121
1.69558e-121
-1.75924e-120
2.72453e-120
4.28046e-120
-2.42057e-119
2.5382e-119
8.4828e-119
-3.13637e-118
1.49761e-118
1.46416e-117
-3.71799e-117
-9.53813e-118
2.26511e-116
-3.81068e-116
-5.40142e-116
3.14417e-115
-2.86961e-115
-1.21793e-114
3.83394e-114
-2.22048e-115
-2.0867e-113
3.85881e-113
4.70297e-113
-2.96052e-112
2.56175e-112
1.19086e-111
-3.44911e-111
-7.08423e-112
2.01536e-110
-2.9633e-110
-6.17378e-110
2.63125e-109
-8.72774e-110
-1.29896e-108
2.53475e-108
3.10988e-108
-1.8641e-107
1.17273e-107
8.35026e-107
-1.89411e-106
-1.70732e-106
1.27794e-105
-9.39904e-106
-5.55211e-105
1.29986e-104
1.15977e-104
-8.62132e-104
5.65774e-104
3.86178e-103
-8.24623e-103
-9.71445e-103
5.69674e-102
-2.21969e-102
-2.75864e-101
4.69029e-101
8.82004e-101
-3.59091e-100
-2.95911e-101
1.94346e-99
-2.16133e-99
-7.75592e-99
2.04528e-98
1.75654e-98
-1.27882e-97
4.99643e-98
6.18842e-97
-9.33951e-97
-2.25463e-96
7.27823e-96
4.26884e-96
-4.24846e-95
2.04505e-95
2.01703e-94
-3.03616e-94
-7.59667e-94
2.29879e-93
1.81242e-93
-1.35963e-92
2.8239e-93
6.79455e-92
-7.36188e-92
-2.88358e-91
6.21587e-91
9.75465e-91
-3.98802e-90
-1.85916e-90
2.19286e-89
-7.15348e-90
-1.07025e-88
1.14803e-88
4.64908e-88
-9.1153e-88
-1.74609e-87
5.81082e-87
5.07785e-87
-3.2761e-86
-5.31951e-87
1.69226e-85
-7.35229e-86
-8.12722e-85
8.28803e-85
3.64278e-84
-6.11375e-84
-1.51517e-83
3.83166e-83
5.7315e-83
-2.18996e-82
-1.86597e-82
1.17661e-81
4.28644e-82
-6.03984e-81
2.63554e-82
2.9919e-80
-1.22798e-80
-1.44e-79
1.09269e-79
6.7685e-79
-7.47059e-79
-3.12e-78
4.54204e-78
1.41574e-77
-2.58009e-77
-6.34715e-77
1.40145e-76
2.82258e-76
-7.37428e-76
-1.25052e-75
3.78944e-75
5.5473e-75
-1.91199e-74
-2.47771e-74
9.50735e-74
1.12088e-73
-4.67085e-73
-5.16433e-73
2.27092e-72
2.43379e-72
-1.09358e-71
-1.17566e-71
5.21696e-71
5.8176e-71
-2.46417e-70
-2.9397e-70
1.15097e-69
1.50935e-69
-5.30509e-69
-7.82831e-69
2.40547e-68
4.07737e-68
-1.0681e-67
-2.12113e-67
4.61337e-67
1.09683e-66
-1.91832e-66
-5.61358e-66
7.54611e-66
2.83246e-65
-2.71457e-65
-1.40357e-64
8.21501e-65
6.80241e-64
-1.46894e-64
-3.20879e-63
-5.20726e-64
1.46408e-62
8.31301e-63
-6.40509e-62
-6.59949e-62
2.65029e-61
4.25394e-61
-1.01252e-60
-2.44434e-60
3.39331e-60
1.29201e-59
-8.56187e-60
-6.34898e-59
3.14417e-60
2.89842e-58
1.57372e-58
-1.21542e-57
-1.46538e-57
4.54898e-57
9.55275e-57
-1.41021e-56
-5.24407e-56
2.68501e-56
2.53604e-55
6.30894e-56
-1.08458e-54
-1.09478e-54
3.98454e-54
7.96343e-54
-1.134e-53
-4.43928e-53
1.36047e-53
2.07162e-52
1.16287e-52
-8.10131e-52
-1.22249e-51
2.4578e-51
7.5783e-51
-3.74927e-51
-3.65522e-50
-1.84083e-50
1.41098e-49
2.1793e-49
-3.94815e-49
-1.33987e-48
3.36385e-49
6.12247e-48
4.97678e-48
-2.10039e-47
-4.39702e-47
4.19074e-47
2.34222e-46
8.35063e-47
-9.02712e-46
-1.39118e-45
2.21425e-45
8.49712e-45
7.48019e-46
-3.49681e-44
-4.57436e-44
9.07326e-44
3.05124e-43
4.14894e-45
-1.27132e-42
-1.65463e-42
3.14587e-42
1.10245e-41
1.59204e-42
-4.35698e-41
-6.57337e-41
8.98367e-41
3.95481e-40
1.8359e-40
-1.3652e-39
-2.70063e-39
1.69648e-39
1.3499e-38
1.29034e-38
-3.58076e-38
-1.0597e-37
-1.48212e-38
4.06167e-37
6.84186e-37
-5.75852e-37
-3.65302e-36
-3.45393e-36
9.1372e-36
2.84828e-35
9.66195e-36
-9.76596e-35
-1.99224e-34
5.65961e-35
8.834e-34
1.26728e-33
-1.32685e-33
-7.26136e-33
-7.34125e-33
1.56625e-32
5.62008e-32
3.83149e-32
-1.50519e-31
-4.19227e-31
-1.75103e-31
1.30265e-30
3.06854e-30
6.5931e-31
-1.05661e-29
-2.23619e-29
-1.83929e-30
8.18875e-29
1.64013e-28
5.36409e-30
-6.11679e-28
-1.21764e-27
-9.01258e-29
4.40839e-27
9.14447e-27
1.85633e-27
-3.04547e-26
-6.89767e-26
-2.80404e-26
1.98376e-25
5.15979e-25
3.4513e-25
-1.17714e-24
-3.76167e-24
-3.69144e-24
5.86235e-24
2.6124e-23
3.53145e-23
-1.78693e-23
-1.67258e-22
-3.04812e-22
-7.3954e-23
9.31317e-22
2.35888e-21
2.00006e-21
-3.87232e-21
-1.59763e-20
-2.29942e-20
3.39451e-21
8.91043e-20
1.96433e-19
1.48954e-19
-3.35875e-19
-1.31882e-18
-1.98228e-18
-1.82532e-19
6.42503e-18
1.62346e-17
1.7509e-17
-1.2776e-17
-9.14635e-17
-1.83184e-16
-1.45264e-16
2.5769e-16
1.14019e-15
2.01593e-15
1.29283e-15
-3.45292e-15
-1.31868e-14
-2.25298e-14
-1.46437e-14
3.63986e-14
1.43596e-13
2.58074e-13
2.11583e-13
-2.80927e-13
-1.43804e-12
-2.94297e-12
-3.27585e-12
6.18417e-13
1.21938e-11
3.13025e-11
4.69609e-11
2.9937e-11
-6.57384e-11
-2.76958e-10
-5.66362e-10
-7.20899e-10
-2.64412e-10
1.48969e-09
5.04525e-09
9.79399e-09
1.25632e-08
6.20283e-09
-2.02981e-08
-7.75963e-08
-1.64566e-07
-2.47807e-07
-2.34987e-07
4.53271e-08
8.29948e-07
2.32946e-06
4.50484e-06
6.67003e-06
6.9321e-06
1.59923e-06
-1.51137e-05
-5.04733e-05
-0.000110775
-0.000195814
-0.00028889
-0.000341074
-0.00024904
0.000173176
0.00122648
0.00335918
0.00719355
0.013539
0.0233839
0.0378584
0.0581644
0.0854725
0.120792
0.164828
0.217838
0.279518
0.348932
0.42451
0.504108
0.585158
0.664868
0.740458
0.809417
0.869723
0.920015
0.95968
0.988867
1.0084
1.01962
1.02423
1.02403
1.02076
1.01595
1.01081
1.00615
1.00246
0.999915
0.998448
0.997864
0.997901
0.998297
0.998833
0.999352
0.999766
1.00004
1.00018
1.00022
1.0002
1.00014
1.00008
1.00003
0.999997
0.99998
0.999976
0.99998
0.999987
0.999993
0.999998
1
1
1
1
1
1
1
1
1
1
1
1
1
1
1
1
1
1
1
1
1
1
1
1
1
1
1
1
1
1
1
1
0.999999
0.999998
0.999995
0.999993
0.999993
0.999998
1.00002
1.00005
1.00011
1.0002
1.00029
1.00034
1.00025
0.999827
0.998774
0.996641
0.992806
0.986461
0.976616
0.962142
0.941836
0.914527
0.879208
0.835172
0.782162
0.720482
0.651068
0.57549
0.495892
0.414842
0.335132
0.259542
0.190583
0.130277
0.0799854
0.0403197
0.0111332
-0.00839745
-0.0196231
-0.0242289
-0.0240265
-0.0207608
-0.0159547
-0.0108075
-0.00615204
-0.00246423
8.47366e-05
0.00155162
0.00213559
0.0020988
0.001703
0.00116744
0.000648018
0.000234489
-3.98529e-05
-0.000181981
-0.000221639
-0.000196282
-0.00014043
-7.98687e-05
-2.9982e-05
3.04473e-06
1.95647e-05
2.35085e-05
1.99001e-05
1.32047e-05
6.53421e-06
1.52456e-06
-1.37736e-06
-2.46775e-06
-2.36075e-06
-1.68052e-06
-8.95013e-07
-2.68772e-07
1.08262e-07
2.59218e-07
2.5802e-07
1.83615e-07
9.53356e-08
2.59859e-08
-1.40801e-08
-2.84741e-08
-2.65221e-08
-1.7537e-08
-8.0332e-09
-1.21946e-09
2.24074e-09
3.08529e-09
2.47644e-09
1.40722e-09
4.76742e-10
-8.8895e-11
-3.06979e-10
-2.99533e-10
-1.95613e-10
-8.45579e-11
-8.07583e-12
2.73273e-11
3.28826e-11
2.37484e-11
1.15582e-11
2.36652e-12
-2.30324e-12
-3.41068e-12
-2.63448e-12
-1.35749e-12
-3.389e-13
2.00022e-13
3.43882e-13
2.73499e-13
1.42608e-13
3.65196e-14
-1.94957e-14
-3.4197e-14
-2.68427e-14
-1.35866e-14
-3.1344e-15
2.15068e-15
3.34988e-15
2.48866e-15
1.17041e-15
2.00069e-16
-2.49045e-16
-3.18649e-16
-2.15792e-16
-8.93351e-17
-5.52516e-18
2.79408e-17
2.88073e-17
1.71757e-17
5.74116e-18
-8.49045e-19
-2.89512e-18
-2.41536e-18
-1.21716e-18
-2.66903e-19
1.88294e-19
2.70094e-19
1.82689e-19
7.25503e-20
2.08735e-21
-2.36189e-20
-2.22746e-20
-1.20013e-20
-3.12516e-21
1.33672e-21
2.28192e-21
1.58729e-21
6.37382e-22
2.62217e-23
-1.93466e-22
-1.80187e-22
-9.37223e-23
-2.18504e-23
1.22452e-23
1.8e-23
1.16117e-23
4.12003e-24
-2.67562e-25
-1.58694e-24
-1.27792e-24
-5.77748e-25
-7.79921e-26
1.20974e-25
1.28052e-25
6.95359e-26
1.76308e-26
-7.40077e-27
-1.18377e-26
-7.55958e-27
-2.56139e-27
2.54292e-28
1.0168e-27
7.61588e-28
3.10584e-28
1.83029e-29
-8.13896e-29
-7.22233e-29
-3.37992e-29
-5.28662e-30
6.06681e-30
6.51883e-30
3.409e-30
7.63076e-31
-4.19016e-31
-5.64915e-31
-3.24428e-31
-8.87229e-32
2.65105e-32
4.73554e-32
2.94674e-32
9.16378e-33
-1.50105e-33
-3.8661e-33
-2.5748e-33
-8.73287e-34
7.22649e-35
3.09313e-34
2.1768e-34
7.8246e-35
-2.55777e-36
-2.43872e-35
-1.78806e-35
-6.66142e-36
2.22441e-38
1.90347e-36
1.43121e-36
5.4216e-37
5.58494e-39
-1.47528e-37
-1.1189e-37
-4.23655e-38
3.64774e-39
)
;

boundaryField
{
    sides
    {
        type            zeroGradient;
    }
    empty
    {
        type            empty;
    }
}


// ************************************************************************* //
