/*--------------------------------*- C++ -*----------------------------------*\
| =========                 |                                                 |
| \\      /  F ield         | OpenFOAM: The Open Source CFD Toolbox           |
|  \\    /   O peration     | Version:  2312                                  |
|   \\  /    A nd           | Website:  www.openfoam.com                      |
|    \\/     M anipulation  |                                                 |
\*---------------------------------------------------------------------------*/
FoamFile
{
    version     2.0;
    format      ascii;
    arch        "LSB;label=32;scalar=64";
    class       volScalarField;
    location    "2.7";
    object      T;
}
// * * * * * * * * * * * * * * * * * * * * * * * * * * * * * * * * * * * * * //

dimensions      [0 0 0 1 0 0 0];

internalField   nonuniform List<scalar> 
1000
(
1.01724e-09
1.02131e-09
1.03254e-09
1.05098e-09
1.07677e-09
1.11006e-09
1.15105e-09
1.20001e-09
1.25725e-09
1.32312e-09
1.39802e-09
1.48243e-09
1.57688e-09
1.68193e-09
1.79825e-09
1.92655e-09
2.06762e-09
2.22232e-09
2.39159e-09
2.57645e-09
2.77804e-09
2.99756e-09
3.23634e-09
3.4958e-09
3.77748e-09
4.08307e-09
4.41436e-09
4.7733e-09
5.162e-09
5.58273e-09
6.03792e-09
6.53021e-09
7.06243e-09
7.63763e-09
8.25908e-09
8.93032e-09
9.65514e-09
1.04376e-08
1.12821e-08
1.21933e-08
1.31763e-08
1.42364e-08
1.53796e-08
1.6612e-08
1.79404e-08
1.93719e-08
2.09142e-08
2.25755e-08
2.43648e-08
2.62915e-08
2.83657e-08
3.05983e-08
3.3001e-08
3.55862e-08
3.83673e-08
4.13586e-08
4.45753e-08
4.80339e-08
5.17517e-08
5.57476e-08
6.00414e-08
6.46547e-08
6.96102e-08
7.49323e-08
8.06471e-08
8.67826e-08
9.33684e-08
1.00436e-07
1.0802e-07
1.16156e-07
1.24883e-07
1.34242e-07
1.44277e-07
1.55034e-07
1.66565e-07
1.78921e-07
1.9216e-07
2.06342e-07
2.21532e-07
2.37798e-07
2.55214e-07
2.73857e-07
2.93809e-07
3.1516e-07
3.38003e-07
3.62437e-07
3.8857e-07
4.16513e-07
4.46387e-07
4.78319e-07
5.12446e-07
5.4891e-07
5.87865e-07
6.29475e-07
6.7391e-07
7.21355e-07
7.72004e-07
8.26064e-07
8.83754e-07
9.45307e-07
1.01097e-06
1.081e-06
1.15568e-06
1.2353e-06
1.32017e-06
1.41063e-06
1.50702e-06
1.60971e-06
1.7191e-06
1.8356e-06
1.95964e-06
2.09171e-06
2.23228e-06
2.38187e-06
2.54105e-06
2.71038e-06
2.89049e-06
3.08203e-06
3.28568e-06
3.50218e-06
3.73228e-06
3.9768e-06
4.23659e-06
4.51256e-06
4.80567e-06
5.11691e-06
5.44735e-06
5.79812e-06
6.17038e-06
6.5654e-06
6.98447e-06
7.42899e-06
7.90042e-06
8.40028e-06
8.9302e-06
9.49188e-06
1.00871e-05
1.07178e-05
1.13859e-05
1.20936e-05
1.28429e-05
1.36364e-05
1.44763e-05
1.53652e-05
1.63058e-05
1.7301e-05
1.83538e-05
1.94671e-05
2.06444e-05
2.18891e-05
2.32047e-05
2.45951e-05
2.60642e-05
2.76163e-05
2.92556e-05
3.09868e-05
3.28147e-05
3.47444e-05
3.67811e-05
3.89304e-05
4.11981e-05
4.35902e-05
4.61131e-05
4.87736e-05
5.15785e-05
5.45352e-05
5.76513e-05
6.09348e-05
6.4394e-05
6.80377e-05
7.18751e-05
7.59156e-05
8.01692e-05
8.46464e-05
8.93581e-05
9.43155e-05
9.95306e-05
0.000105016
0.000110784
0.000116848
0.000123223
0.000129923
0.000136964
0.000144361
0.000152131
0.000160291
0.000168859
0.000177854
0.000187296
0.000197205
0.000207602
0.000218509
0.000229949
0.000241946
0.000254525
0.000267711
0.000281531
0.000296013
0.000311186
0.000327079
0.000343725
0.000361155
0.000379403
0.000398504
0.000418494
0.000439411
0.000461292
0.00048418
0.000508114
0.00053314
0.000559301
0.000586644
0.000615217
0.00064507
0.000676255
0.000708824
0.000742833
0.00077834
0.000815402
0.000854081
0.000894441
0.000936545
0.000980462
0.00102626
0.00107401
0.00112379
0.00117568
0.00122975
0.00128608
0.00134476
0.00140588
0.00146951
0.00153577
0.00160474
0.00167651
0.00175119
0.00182889
0.0019097
0.00199374
0.00208112
0.00217195
0.00226636
0.00236447
0.0024664
0.00257228
0.00268225
0.00279644
0.00291499
0.00303804
0.00316574
0.00329825
0.00343571
0.00357829
0.00372614
0.00387944
0.00403835
0.00420306
0.00437373
0.00455056
0.00473372
0.00492341
0.00511983
0.00532317
0.00553365
0.00575146
0.00597683
0.00620997
0.0064511
0.00670045
0.00695825
0.00722474
0.00750015
0.00778474
0.00807875
0.00838243
0.00869605
0.00901987
0.00935416
0.00969919
0.0100552
0.0104226
0.0108015
0.0111923
0.0115953
0.0120107
0.0124389
0.0128802
0.0133349
0.0138033
0.0142858
0.0147826
0.0152941
0.0158206
0.0163624
0.01692
0.0174936
0.0180836
0.0186903
0.0193142
0.0199554
0.0206145
0.0212918
0.0219876
0.0227024
0.0234364
0.0241901
0.0249638
0.0257579
0.0265728
0.0274089
0.0282665
0.0291461
0.030048
0.0309727
0.0319204
0.0328916
0.0338866
0.0349059
0.0359499
0.0370188
0.0381132
0.0392334
0.0403797
0.0415526
0.0427524
0.0439795
0.0452342
0.046517
0.0478282
0.0491682
0.0505372
0.0519357
0.0533641
0.0548225
0.0563115
0.0578313
0.0593822
0.0609646
0.0625788
0.064225
0.0659036
0.0676148
0.069359
0.0711363
0.0729471
0.0747917
0.0766701
0.0785827
0.0805297
0.0825113
0.0845277
0.086579
0.0886655
0.0907873
0.0929445
0.0951372
0.0973657
0.0996299
0.10193
0.104266
0.106638
0.109046
0.11149
0.11397
0.116486
0.119038
0.121626
0.12425
0.126909
0.129605
0.132335
0.135102
0.137903
0.14074
0.143611
0.146517
0.149457
0.152432
0.15544
0.158481
0.161556
0.164664
0.167804
0.170976
0.174179
0.177414
0.180679
0.183975
0.1873
0.190654
0.194037
0.197447
0.200885
0.204349
0.20784
0.211356
0.214896
0.218461
0.222048
0.225658
0.229289
0.232941
0.236613
0.240304
0.244013
0.24774
0.251482
0.25524
0.259012
0.262798
0.266595
0.270404
0.274224
0.278052
0.281888
0.285732
0.289581
0.293434
0.297292
0.301151
0.305011
0.308872
0.31273
0.316587
0.320439
0.324286
0.328127
0.33196
0.335783
0.339597
0.343398
0.347187
0.350961
0.35472
0.358461
0.362184
0.365886
0.369568
0.373227
0.376862
0.380472
0.384054
0.387609
0.391134
0.394628
0.39809
0.401518
0.404911
0.408267
0.411586
0.414866
0.418105
0.421302
0.424456
0.427566
0.43063
0.433646
0.436615
0.439534
0.442401
0.445217
0.44798
0.450688
0.45334
0.455935
0.458473
0.460951
0.463369
0.465726
0.46802
0.470251
0.472418
0.47452
0.476555
0.478523
0.480422
0.482253
0.484014
0.485704
0.487323
0.48887
0.490344
0.491745
0.493071
0.494323
0.495499
0.496599
0.497623
0.49857
0.499439
0.500231
0.500945
0.50158
0.502137
0.502614
0.503012
0.503331
0.503571
0.50373
0.50381
0.50381
0.50373
0.503571
0.503331
0.503012
0.502614
0.502137
0.50158
0.500945
0.500231
0.499439
0.49857
0.497623
0.496599
0.495499
0.494323
0.493071
0.491745
0.490344
0.48887
0.487323
0.485704
0.484014
0.482253
0.480422
0.478523
0.476555
0.47452
0.472418
0.470251
0.46802
0.465726
0.463369
0.460951
0.458473
0.455935
0.45334
0.450688
0.44798
0.445217
0.442401
0.439534
0.436615
0.433646
0.43063
0.427566
0.424456
0.421302
0.418105
0.414866
0.411586
0.408267
0.404911
0.401518
0.39809
0.394628
0.391134
0.387609
0.384054
0.380472
0.376862
0.373227
0.369568
0.365886
0.362184
0.358461
0.35472
0.350961
0.347187
0.343398
0.339597
0.335783
0.33196
0.328127
0.324286
0.320439
0.316587
0.31273
0.308872
0.305011
0.301151
0.297292
0.293434
0.289581
0.285732
0.281888
0.278052
0.274224
0.270404
0.266595
0.262798
0.259012
0.25524
0.251482
0.24774
0.244013
0.240304
0.236613
0.232941
0.229289
0.225658
0.222048
0.218461
0.214896
0.211356
0.20784
0.204349
0.200885
0.197447
0.194037
0.190654
0.1873
0.183975
0.180679
0.177414
0.174179
0.170976
0.167804
0.164664
0.161556
0.158481
0.15544
0.152432
0.149457
0.146517
0.143611
0.14074
0.137903
0.135102
0.132335
0.129605
0.126909
0.12425
0.121626
0.119038
0.116486
0.11397
0.11149
0.109046
0.106638
0.104266
0.10193
0.0996299
0.0973657
0.0951372
0.0929445
0.0907873
0.0886655
0.086579
0.0845277
0.0825113
0.0805297
0.0785827
0.0766701
0.0747917
0.0729471
0.0711363
0.069359
0.0676148
0.0659036
0.064225
0.0625788
0.0609646
0.0593822
0.0578313
0.0563115
0.0548225
0.0533641
0.0519357
0.0505372
0.0491682
0.0478282
0.046517
0.0452342
0.0439795
0.0427524
0.0415526
0.0403797
0.0392334
0.0381132
0.0370188
0.0359499
0.0349059
0.0338866
0.0328916
0.0319204
0.0309727
0.030048
0.0291461
0.0282665
0.0274089
0.0265728
0.0257579
0.0249638
0.0241901
0.0234364
0.0227024
0.0219876
0.0212918
0.0206145
0.0199554
0.0193142
0.0186903
0.0180836
0.0174936
0.01692
0.0163624
0.0158206
0.0152941
0.0147826
0.0142858
0.0138033
0.0133349
0.0128802
0.0124389
0.0120107
0.0115953
0.0111923
0.0108015
0.0104226
0.0100552
0.00969919
0.00935416
0.00901987
0.00869605
0.00838243
0.00807875
0.00778474
0.00750015
0.00722474
0.00695825
0.00670045
0.0064511
0.00620997
0.00597683
0.00575146
0.00553365
0.00532317
0.00511983
0.00492341
0.00473372
0.00455056
0.00437373
0.00420306
0.00403835
0.00387944
0.00372614
0.00357829
0.00343571
0.00329825
0.00316574
0.00303804
0.00291499
0.00279644
0.00268225
0.00257228
0.0024664
0.00236447
0.00226636
0.00217195
0.00208112
0.00199374
0.0019097
0.00182889
0.00175119
0.00167651
0.00160474
0.00153577
0.00146951
0.00140588
0.00134476
0.00128608
0.00122975
0.00117568
0.00112379
0.00107401
0.00102626
0.000980462
0.000936545
0.000894441
0.000854081
0.000815402
0.00077834
0.000742833
0.000708824
0.000676255
0.00064507
0.000615217
0.000586644
0.000559301
0.00053314
0.000508114
0.00048418
0.000461292
0.000439411
0.000418494
0.000398504
0.000379403
0.000361155
0.000343725
0.000327079
0.000311186
0.000296013
0.000281531
0.000267711
0.000254525
0.000241946
0.000229949
0.000218509
0.000207602
0.000197205
0.000187296
0.000177854
0.000168859
0.000160291
0.000152131
0.000144361
0.000136964
0.000129923
0.000123223
0.000116848
0.000110784
0.000105016
9.95306e-05
9.43155e-05
8.93581e-05
8.46464e-05
8.01692e-05
7.59156e-05
7.18751e-05
6.80377e-05
6.4394e-05
6.09348e-05
5.76513e-05
5.45352e-05
5.15785e-05
4.87736e-05
4.61131e-05
4.35902e-05
4.11981e-05
3.89304e-05
3.67811e-05
3.47444e-05
3.28147e-05
3.09868e-05
2.92556e-05
2.76163e-05
2.60642e-05
2.45951e-05
2.32047e-05
2.18891e-05
2.06444e-05
1.94671e-05
1.83538e-05
1.7301e-05
1.63058e-05
1.53652e-05
1.44763e-05
1.36364e-05
1.28429e-05
1.20936e-05
1.13859e-05
1.07178e-05
1.00871e-05
9.49188e-06
8.9302e-06
8.40028e-06
7.90042e-06
7.42899e-06
6.98447e-06
6.5654e-06
6.17038e-06
5.79812e-06
5.44735e-06
5.11691e-06
4.80567e-06
4.51256e-06
4.23659e-06
3.9768e-06
3.73228e-06
3.50218e-06
3.28568e-06
3.08203e-06
2.89049e-06
2.71038e-06
2.54105e-06
2.38187e-06
2.23228e-06
2.09171e-06
1.95964e-06
1.8356e-06
1.7191e-06
1.60971e-06
1.50702e-06
1.41063e-06
1.32017e-06
1.2353e-06
1.15568e-06
1.081e-06
1.01097e-06
9.45307e-07
8.83754e-07
8.26064e-07
7.72004e-07
7.21355e-07
6.7391e-07
6.29475e-07
5.87865e-07
5.4891e-07
5.12446e-07
4.78319e-07
4.46387e-07
4.16513e-07
3.8857e-07
3.62437e-07
3.38003e-07
3.1516e-07
2.93809e-07
2.73857e-07
2.55214e-07
2.37798e-07
2.21532e-07
2.06342e-07
1.9216e-07
1.78921e-07
1.66565e-07
1.55034e-07
1.44277e-07
1.34242e-07
1.24883e-07
1.16156e-07
1.0802e-07
1.00436e-07
9.33684e-08
8.67826e-08
8.06471e-08
7.49323e-08
6.96102e-08
6.46547e-08
6.00414e-08
5.57476e-08
5.17517e-08
4.80339e-08
4.45753e-08
4.13586e-08
3.83673e-08
3.55862e-08
3.3001e-08
3.05983e-08
2.83657e-08
2.62915e-08
2.43648e-08
2.25755e-08
2.09142e-08
1.93719e-08
1.79404e-08
1.6612e-08
1.53796e-08
1.42364e-08
1.31763e-08
1.21933e-08
1.12821e-08
1.04376e-08
9.65514e-09
8.93032e-09
8.25908e-09
7.63763e-09
7.06243e-09
6.53021e-09
6.03792e-09
5.58273e-09
5.162e-09
4.7733e-09
4.41436e-09
4.08307e-09
3.77748e-09
3.4958e-09
3.23634e-09
2.99756e-09
2.77804e-09
2.57645e-09
2.39159e-09
2.22232e-09
2.06762e-09
1.92655e-09
1.79825e-09
1.68193e-09
1.57688e-09
1.48243e-09
1.39802e-09
1.32312e-09
1.25725e-09
1.20001e-09
1.15105e-09
1.11006e-09
1.07677e-09
1.05098e-09
1.03254e-09
1.02131e-09
1.01724e-09
)
;

boundaryField
{
    sides
    {
        type            zeroGradient;
    }
    empty
    {
        type            empty;
    }
}


// ************************************************************************* //
