/*--------------------------------*- C++ -*----------------------------------*\
| =========                 |                                                 |
| \\      /  F ield         | OpenFOAM: The Open Source CFD Toolbox           |
|  \\    /   O peration     | Version:  2312                                  |
|   \\  /    A nd           | Website:  www.openfoam.com                      |
|    \\/     M anipulation  |                                                 |
\*---------------------------------------------------------------------------*/
FoamFile
{
    version     2.0;
    format      ascii;
    arch        "LSB;label=32;scalar=64";
    class       volScalarField;
    location    "2.7";
    object      T;
}
// * * * * * * * * * * * * * * * * * * * * * * * * * * * * * * * * * * * * * //

dimensions      [0 0 0 1 0 0 0];

internalField   nonuniform List<scalar> 
1000
(
0
0
0
0
0
0
0
0
0
0
0
0
0
0
0
0
0
0
0
0
0
0
0
0
0
0
0
0
0
0
0
0
0
0
0
0
0
0
0
0
0
0
0
0
0
0
0
0
0
0
0
0
0
0
0
0
0
0
0
0
0
0
0
0
0
0
0
0
0
0
0
0
0
0
0
0
0
0
0
0
0
0
0
0
0
0
0
0
0
0
0
0
0
0
0
0
0
0
0
0
0
0
0
0
0
0
0
0
0
0
0
0
0
0
0
0
0
0
0
0
0
0
0
0
0
0
0
0
0
0
0
0
0
0
0
0
0
0
0
0
0
0
0
0
0
0
0
0
0
0
0
0
0
0
0
0
0
0
0
0
0
0
0
0
0
0
0
0
0
0
0
0
0
0
0
0
0
0
0
0
0
0
0
0
0
0
0
0
0
0
0
0
0
0
0
0
0
0
0
0
0
0
0
0
0
0
0
0
0
0
0
0
0
0
0
0
0
0
0
0
0
0
0
0
0
0
0
0
0
0
0
0
0
0
0
0
0
0
0
0
0
0
0
0
0
0
0
0
0
0
0
0
0
0
0
0
0
0
0
0
0
0
0
0
0
0
0
0
0
0
0
0
0
0
0
0
0
0
0
0
0
0
0
0
0
0
0
0
0
0
0
0
0
0
0
0
0
0
0
0
0
0
0
0
0
0
0
0
0
0
0
0
0
0
0
0
0
0
0
0
0
0
0
0
0
0
0
0
0
0
0
0
0
0
0
0
0
0
0
0
0
0
0
0
0
0
0
0
0
0
0
0
0
0
0
0
0
0
0
0
0
0
0
0
0
0
0
0
0
0
0
0
0
0
0
0
0
0
0
0
0
0
0
0
0
0
0
0
0
0
0
0
0
0
0
0
0
0
0
0
0
0
0
0
3.94812e-108
-2.65036e-92
1.59255e-84
-9.27179e-81
-7.08471e-79
-1.28475e-77
8.99382e-76
7.69088e-74
3.2456e-72
9.74079e-71
2.31296e-69
4.57762e-68
7.79298e-67
1.16589e-65
1.55694e-64
1.87803e-63
2.06537e-62
2.08649e-61
1.94805e-60
1.68934e-59
1.36631e-58
1.03405e-57
7.34246e-57
4.90139e-56
3.07998e-55
1.82297e-54
1.01591e-53
5.32162e-53
2.61067e-52
1.19093e-51
4.98266e-51
1.85728e-50
5.72858e-50
1.08143e-49
-2.67129e-49
-4.63724e-48
-3.51068e-47
-2.11224e-46
-1.12479e-45
-5.51739e-45
-2.5421e-44
-1.1124e-43
-4.65529e-43
-1.87185e-42
-7.25517e-42
-2.71713e-41
-9.85024e-41
-3.46161e-40
-1.18066e-39
-3.91243e-39
-1.26093e-38
-3.95642e-38
-1.20994e-37
-3.61079e-37
-1.05294e-36
-3.00475e-36
-8.40433e-36
-2.30775e-35
-6.23068e-35
-1.65626e-34
-4.33905e-34
-1.12087e-33
-2.8548e-33
-7.16398e-33
-1.76906e-32
-4.29129e-32
-1.02047e-31
-2.37361e-31
-5.38811e-31
-1.19109e-30
-2.55924e-30
-5.33721e-30
-1.07961e-29
-2.11961e-29
-4.0507e-29
-7.58358e-29
-1.40691e-28
-2.63106e-28
-5.06045e-28
-1.0166e-27
-2.13696e-27
-4.63506e-27
-1.01387e-26
-2.18534e-26
-4.55266e-26
-9.02059e-26
-1.67284e-25
-2.84103e-25
-4.24398e-25
-5.01873e-25
-2.6654e-25
8.58626e-25
4.01751e-24
1.11843e-23
2.52497e-23
4.94351e-23
8.50433e-23
1.25875e-22
1.46977e-22
8.53762e-23
-1.87606e-22
-8.96603e-22
-2.3752e-21
-5.01641e-21
-9.07668e-21
-1.42014e-20
-1.85037e-20
-1.70445e-20
2.78826e-22
5.10124e-20
1.61331e-19
3.63493e-19
6.85024e-19
1.12311e-18
1.59665e-18
1.87067e-18
1.45556e-18
-5.00346e-19
-5.26918e-18
-1.44381e-17
-2.94482e-17
-5.05018e-17
-7.46161e-17
-9.29051e-17
-8.81144e-17
-2.68214e-17
1.63742e-16
6.13166e-16
1.39903e-15
2.24996e-15
1.68046e-15
-4.07326e-15
-1.19122e-14
-9.90713e-15
1.54474e-14
4.15591e-14
1.8822e-14
-6.87518e-14
-1.15145e-13
1.15424e-14
2.46483e-13
2.46821e-13
-2.012e-13
-7.2853e-13
-4.32992e-13
9.54935e-13
1.93778e-12
4.43188e-13
-3.41084e-12
-4.70536e-12
6.86958e-13
1.04318e-11
1.08919e-11
-5.62277e-12
-2.92204e-11
-2.56439e-11
2.22102e-11
7.88806e-11
6.14817e-11
-6.85015e-11
-2.09352e-10
-1.5653e-10
1.85033e-10
5.5202e-10
4.28413e-10
-4.22554e-10
-1.43535e-09
-1.26706e-09
7.94804e-10
3.65426e-09
3.7742e-09
-7.8226e-10
-8.61346e-09
-1.13854e-08
-2.10347e-09
1.82494e-08
3.2071e-08
1.77701e-08
-3.05719e-08
-8.27307e-08
-7.7314e-08
2.04791e-08
1.80014e-07
2.57524e-07
1.18668e-07
-2.68446e-07
-6.86346e-07
-6.82999e-07
-8.13138e-09
1.24964e-06
2.22177e-06
1.76246e-06
-7.09018e-07
-4.5301e-06
-6.96084e-06
-5.00264e-06
2.797e-06
1.45079e-05
2.21477e-05
1.72166e-05
-4.85529e-06
-4.08677e-05
-7.11162e-05
-6.81468e-05
-1.63514e-05
8.7582e-05
0.000208734
0.000266645
0.000195312
-4.6974e-05
-0.000442445
-0.000858084
-0.00103137
-0.000776961
6.09153e-05
0.00148197
0.00317693
0.00444628
0.00440994
0.0026178
-0.00152472
-0.00800132
-0.0159823
-0.0234943
-0.027333
-0.0251257
-0.0145991
0.00715765
0.0422414
0.091554
0.154634
0.22967
0.313708
0.403026
0.493585
0.581499
0.663429
0.736856
0.800221
0.852909
0.895134
0.927744
0.951997
0.969349
0.981268
0.989108
0.994027
0.996953
0.998589
0.999435
0.999829
0.999979
1
1
1
1
1
1
1
1
1
1
1
1
1
1
1
1
1
1
1
1
1
1
1
1
1
1
1
1
1
1
1
1
1
1
1
1
1
0.999999
0.999998
0.999998
1
1
1.00001
1.00001
0.999997
0.999986
0.999978
0.999983
1
1.00004
1.00007
1.00007
1.00002
0.999912
0.999792
0.999734
0.999805
1.00005
1.00044
1.00086
1.00103
1.00078
0.999938
0.998517
0.996823
0.995554
0.995592
0.997388
1.00153
1.00801
1.01599
1.02349
1.02732
1.0251
1.01456
0.992784
0.957682
0.908353
0.84526
0.770215
0.686173
0.596857
0.506304
0.4184
0.336484
0.263071
0.19972
0.147045
0.104832
0.0722319
0.0479862
0.0306406
0.0187257
0.0108883
0.00597127
0.00304611
0.00141093
0.000564823
0.000171241
2.13237e-05
1.77383e-16
1.73264e-16
1.70884e-16
1.65846e-16
1.58601e-16
1.49673e-16
1.3955e-16
1.28669e-16
1.17411e-16
1.06099e-16
9.49996e-17
8.43218e-17
7.42241e-17
6.4818e-17
5.61738e-17
4.8327e-17
4.12843e-17
3.50292e-17
2.95279e-17
2.4734e-17
2.05925e-17
1.7044e-17
1.40273e-17
1.14815e-17
9.34833e-18
7.57285e-18
6.10456e-18
4.89772e-18
3.91158e-18
3.11027e-18
2.46263e-18
1.94185e-18
1.52513e-18
1.19325e-18
9.30111e-19
7.22383e-19
5.59075e-19
4.31204e-19
3.31466e-19
2.53962e-19
1.93954e-19
1.47657e-19
1.1206e-19
8.47833e-20
6.39504e-20
4.80908e-20
3.60559e-20
2.6952e-20
2.0087e-20
1.49261e-20
1.10585e-20
8.16876e-21
6.01634e-21
4.41798e-21
3.23467e-21
2.36128e-21
1.71861e-21
1.24714e-21
9.02326e-22
6.50903e-22
4.68137e-22
3.35685e-22
2.39989e-22
1.7106e-22
1.21564e-22
8.61299e-23
6.08414e-23
4.28488e-23
3.00865e-23
2.10618e-23
1.46999e-23
1.02288e-23
7.0962e-24
4.90819e-24
3.38462e-24
2.32698e-24
1.59503e-24
1.09004e-24
7.42702e-25
5.04528e-25
3.41708e-25
2.30743e-25
1.55348e-25
1.04278e-25
6.97885e-26
4.65681e-26
3.09818e-26
2.05514e-26
1.35923e-26
8.96334e-27
5.89346e-27
3.86366e-27
2.52556e-27
1.64608e-27
1.06975e-27
6.93196e-28
4.47892e-28
2.88561e-28
1.85376e-28
1.18747e-28
7.58496e-29
4.83108e-29
3.06832e-29
1.94324e-29
1.22723e-29
7.72861e-30
4.85352e-30
3.03946e-30
1.89812e-30
1.18206e-30
7.34098e-31
4.54638e-31
2.80789e-31
1.72941e-31
1.06225e-31
6.50684e-32
3.97492e-32
2.42163e-32
1.47133e-32
8.91538e-33
5.38766e-33
3.2471e-33
1.95177e-33
1.17004e-33
6.99551e-34
4.17143e-34
2.48086e-34
1.47154e-34
8.70568e-35
5.13681e-35
3.02307e-35
1.77448e-35
1.03888e-35
6.06639e-36
3.53325e-36
2.05257e-36
1.18934e-36
6.87385e-37
3.96263e-37
2.27855e-37
1.30686e-37
7.47653e-38
4.2665e-38
2.42855e-38
1.37889e-38
7.80951e-39
4.41195e-39
2.4863e-39
1.39764e-39
7.83714e-40
4.38375e-40
2.44603e-40
1.36147e-40
7.55937e-41
4.18697e-41
2.31341e-41
1.27511e-41
7.01111e-42
3.84567e-42
2.1043e-42
1.14867e-42
6.25515e-43
3.39812e-43
1.84162e-43
9.95687e-44
5.37047e-44
2.88982e-44
1.55131e-44
8.3081e-45
4.43896e-45
2.36613e-45
1.25828e-45
6.67578e-46
3.53356e-46
1.866e-46
9.83112e-47
5.1676e-47
2.71002e-47
1.41793e-47
7.40185e-48
3.85505e-48
2.00321e-48
1.03856e-48
5.3722e-49
2.77259e-49
1.4277e-49
7.33514e-50
3.76012e-50
1.92318e-50
9.81444e-51
4.99736e-51
2.53892e-51
1.28704e-51
6.50985e-52
3.28541e-52
1.65444e-52
8.31299e-53
4.16783e-53
2.08503e-53
1.0408e-53
5.18412e-54
2.57656e-54
1.2778e-54
6.32339e-55
3.12248e-55
1.53856e-55
7.56483e-56
3.71154e-56
1.81711e-56
8.87741e-57
4.32781e-57
2.10538e-57
1.02206e-57
4.95114e-58
2.39344e-58
1.15459e-58
5.55811e-59
2.67005e-59
1.28e-59
6.12346e-60
2.92338e-60
1.39276e-60
6.62179e-61
3.14182e-61
1.48763e-61
7.02949e-62
3.31487e-62
1.56e-62
7.32661e-63
3.43401e-63
1.60629e-63
7.49845e-64
3.49339e-64
1.62425e-64
7.53685e-65
3.49029e-65
1.61313e-65
7.44073e-66
3.42533e-66
1.57374e-66
7.21617e-67
3.30239e-67
1.50834e-67
6.87577e-68
)
;

boundaryField
{
    sides
    {
        type            zeroGradient;
    }
    empty
    {
        type            empty;
    }
}


// ************************************************************************* //
