/*--------------------------------*- C++ -*----------------------------------*\
| =========                 |                                                 |
| \\      /  F ield         | OpenFOAM: The Open Source CFD Toolbox           |
|  \\    /   O peration     | Version:  2312                                  |
|   \\  /    A nd           | Website:  www.openfoam.com                      |
|    \\/     M anipulation  |                                                 |
\*---------------------------------------------------------------------------*/
FoamFile
{
    version     2.0;
    format      ascii;
    arch        "LSB;label=32;scalar=64";
    class       volScalarField;
    location    "3.9";
    object      T;
}
// * * * * * * * * * * * * * * * * * * * * * * * * * * * * * * * * * * * * * //

dimensions      [0 0 0 1 0 0 0];

internalField   nonuniform List<scalar> 
1000
(
0
0
0
0
0
0
0
0
0
0
0
0
0
0
0
0
0
0
0
0
0
0
0
0
0
0
0
0
0
0
0
0
0
0
0
0
0
0
0
0
0
0
0
0
0
0
0
0
0
0
0
0
0
0
0
0
0
0
0
0
0
0
0
0
0
0
0
0
0
0
0
0
0
0
0
0
0
0
0
0
0
0
0
0
0
0
0
0
0
0
0
0
0
0
0
0
0
0
0
0
0
0
0
0
0
0
0
0
0
0
0
0
0
0
0
0
0
0
0
0
0
0
0
0
0
0
0
0
0
0
0
0
0
0
0
0
0
0
0
0
0
0
0
0
0
0
0
0
0
0
0
0
0
0
0
0
0
0
0
0
0
0
0
0
0
0
0
0
0
0
0
0
0
-4.94066e-324
2.96439e-323
-4.94066e-324
2.96439e-323
-4.94066e-324
2.96439e-323
-4.94066e-324
2.96439e-323
-4.94066e-324
2.96439e-323
-4.94066e-324
2.96439e-323
-4.94066e-324
2.96439e-323
-4.94066e-324
2.96439e-323
-4.94066e-324
2.96439e-323
-4.94066e-324
2.96439e-323
-4.94066e-324
2.96439e-323
-4.94066e-324
2.96439e-323
-4.94066e-324
2.96439e-323
-4.94066e-324
2.96439e-323
-4.94066e-324
2.96439e-323
-4.94066e-324
2.96439e-323
-4.94066e-324
2.96439e-323
-4.94066e-324
2.96439e-323
-4.94066e-324
2.96439e-323
-4.94066e-324
2.96439e-323
-4.94066e-324
2.96439e-323
-4.94066e-324
2.96439e-323
-4.94066e-324
2.96439e-323
-4.94066e-324
2.96439e-323
-4.94066e-324
2.96439e-323
-4.94066e-324
2.96439e-323
-4.94066e-324
2.96439e-323
-4.94066e-324
2.96439e-323
-4.94066e-324
2.96439e-323
-4.94066e-324
2.96439e-323
-4.94066e-324
2.96439e-323
-4.94066e-324
2.96439e-323
-4.94066e-324
2.96439e-323
-4.94066e-324
2.96439e-323
-4.94066e-324
2.96439e-323
-4.94066e-324
2.96439e-323
-4.94066e-324
2.96439e-323
-4.94066e-324
2.96439e-323
-4.94066e-324
2.96439e-323
-4.94066e-324
2.96439e-323
-4.94066e-324
2.96439e-323
-4.94066e-324
2.96439e-323
-4.94066e-324
9.88131e-324
2.96439e-323
5.43472e-323
7.41098e-323
9.88131e-323
1.18576e-322
1.43279e-322
1.63042e-322
1.87745e-322
2.12448e-322
2.37152e-322
2.61855e-322
2.86558e-322
3.06321e-322
3.26083e-322
3.45846e-322
3.65609e-322
4.15015e-322
4.00193e-322
3.7549e-322
3.55727e-322
3.35965e-322
3.16202e-322
2.96439e-322
2.76677e-322
2.51973e-322
2.2727e-322
2.02567e-322
1.77864e-322
1.5316e-322
1.33398e-322
1.08694e-322
8.89318e-323
6.42285e-323
4.44659e-323
1.97626e-323
-1.58101e-322
-4.07604e-321
-7.54735e-320
-1.26805e-318
-1.96421e-317
-2.82011e-316
-3.76542e-315
-4.68806e-314
-5.45819e-313
-5.96426e-312
-6.14918e-311
-6.02911e-310
-5.6905e-309
-5.26895e-308
-4.91177e-307
-4.74745e-306
-4.85615e-305
-5.31046e-304
-6.15769e-303
-7.51431e-302
-9.6416e-301
-6.37364e-300
-5.2568e-300
7.11907e-299
1.52578e-297
3.0196e-296
9.00031e-295
3.02263e-293
6.92681e-291
9.48454e-289
7.01026e-287
3.3802e-285
1.1822e-283
3.1965e-282
6.9698e-281
1.26251e-279
1.94213e-278
2.57988e-277
2.99812e-276
3.07795e-275
2.80701e-274
2.27428e-273
1.65674e-272
1.18925e-271
1.0393e-270
1.25771e-269
1.90589e-268
3.13111e-267
4.45904e-266
8.23985e-266
-2.47609e-265
-6.78778e-264
-1.0818e-262
-1.63648e-261
-2.7255e-260
-5.59012e-259
-1.34439e-257
-3.27741e-256
-7.33968e-255
-1.4539e-253
-2.52736e-252
-3.86838e-251
-5.24932e-250
-6.36314e-249
-6.94008e-248
-6.85364e-247
-6.19492e-246
-5.31856e-245
-4.77032e-244
-5.07069e-243
-6.63245e-242
-1.00924e-240
-1.62095e-239
-6.59376e-239
1.26116e-239
2.08773e-237
3.66649e-236
5.69141e-235
9.02369e-234
1.60795e-232
3.31921e-231
7.49501e-230
1.69304e-228
3.57807e-227
6.8335e-226
1.164e-224
1.76492e-223
2.38948e-222
2.90365e-221
3.1858e-220
3.17598e-219
2.89644e-218
2.43822e-217
1.92999e-216
1.49727e-215
1.23235e-214
1.1667e-213
1.29655e-212
1.65172e-211
1.10553e-210
9.16307e-211
-1.19383e-209
-2.16512e-208
-3.01172e-207
-4.15795e-206
-7.24001e-205
-1.66664e-203
-4.45323e-202
-1.26589e-200
-3.54455e-199
-9.0943e-198
-2.05345e-196
-4.03223e-195
-6.90435e-194
-1.03915e-192
-1.3871e-191
-1.65715e-190
-1.7894e-189
-1.76577e-188
-1.61082e-187
-1.38433e-186
-1.15963e-185
-9.89143e-185
-8.93124e-184
-8.74657e-183
-9.67462e-182
-1.07032e-180
-2.44108e-180
2.23341e-180
8.23696e-179
1.10093e-177
1.43251e-176
1.94137e-175
2.53394e-174
2.76706e-173
2.94692e-172
4.07777e-171
6.49714e-170
9.2265e-169
1.03844e-167
8.54409e-167
6.43807e-166
9.64994e-165
3.07171e-163
7.82226e-162
3.81906e-161
7.39826e-161
2.59924e-160
7.24718e-159
1.21379e-157
8.91795e-158
-2.32941e-156
-1.92871e-156
9.42912e-155
5.74043e-154
-7.69466e-154
-4.1937e-152
-5.64659e-152
8.12236e-151
3.60629e-150
-9.21113e-150
-3.60624e-148
-5.69993e-148
5.44081e-147
4.39671e-146
-1.40271e-146
-2.33117e-144
-1.22961e-143
7.56798e-144
1.5007e-142
-1.00878e-142
-8.27879e-141
-7.43022e-140
-2.7827e-139
-6.14565e-139
-2.37838e-138
-2.45924e-137
-2.26279e-136
-1.39608e-135
-5.64606e-135
-1.99732e-134
-1.33417e-133
-1.93416e-132
-3.40325e-131
-1.50958e-130
2.58128e-131
3.06273e-129
3.12642e-129
-4.22153e-128
-8.55267e-127
-2.38472e-126
3.09569e-126
1.18342e-124
4.03272e-124
-2.78565e-124
-1.58199e-122
-1.14131e-121
-7.96096e-122
1.60628e-120
2.14281e-119
2.94115e-119
-1.32036e-118
-1.43749e-117
-1.17293e-117
1.72071e-116
2.96491e-115
2.92132e-114
3.85698e-114
-1.4863e-113
-2.49857e-112
-3.98796e-112
1.09499e-111
2.48936e-110
1.9696e-109
2.01581e-109
-1.25633e-108
-2.14123e-107
-1.08283e-106
-7.27778e-107
1.08811e-105
1.47063e-104
4.20845e-104
-3.53553e-105
-8.04706e-103
-9.2117e-102
-2.44189e-101
2.15132e-102
4.41871e-100
4.85068e-99
1.26882e-98
-3.90325e-100
-2.10016e-97
-2.37342e-96
-1.05409e-95
-8.07998e-96
7.16058e-95
9.20425e-94
4.78904e-93
4.40673e-93
-2.36887e-92
-3.24078e-91
-2.71366e-90
-5.89334e-90
3.60565e-91
8.62776e-89
8.63103e-88
5.19483e-87
6.25131e-87
-1.16173e-86
-2.04686e-85
-1.78126e-84
-7.06588e-84
-5.98784e-84
3.14401e-83
3.78168e-82
2.9273e-81
8.04259e-81
4.26804e-81
-5.62995e-80
-5.61003e-79
-4.20584e-78
-2.9304e-77
-1.98304e-76
-1.31915e-75
-8.65734e-75
-5.61128e-74
-3.60258e-73
-2.28479e-72
-1.30467e-71
-2.5901e-71
-8.98234e-72
1.91647e-70
1.63493e-69
1.07374e-68
6.54903e-68
3.87381e-67
2.2514e-66
1.29121e-65
7.31858e-65
4.10187e-64
2.27386e-63
1.24687e-62
6.76375e-62
3.62985e-61
1.92728e-60
1.01247e-59
5.26275e-59
2.70685e-58
1.37769e-57
6.93898e-57
3.45871e-56
1.70618e-55
8.33001e-55
4.02525e-54
1.92524e-53
9.11455e-53
4.27132e-52
1.98144e-51
9.09924e-51
4.13667e-50
1.8618e-49
8.29588e-49
3.65979e-48
1.59855e-47
6.91327e-47
2.96035e-46
1.25521e-45
5.27006e-45
2.19105e-44
9.02059e-44
3.67771e-43
1.48487e-42
5.93715e-42
2.35102e-41
9.22007e-41
3.58112e-40
1.37759e-39
5.24861e-39
1.98062e-38
7.40285e-38
2.74059e-37
1.00495e-36
3.65011e-36
1.31322e-35
4.67994e-35
1.65205e-34
5.77689e-34
2.00104e-33
6.86612e-33
2.33383e-32
7.85832e-32
2.6212e-31
8.66128e-31
2.83517e-30
9.1938e-30
2.95347e-29
9.39923e-29
2.96332e-28
9.2553e-28
2.86373e-27
8.77813e-27
2.66565e-26
8.01924e-26
2.38998e-25
7.05644e-25
2.06398e-24
5.98075e-24
1.71684e-23
4.88238e-23
1.37548e-22
3.83884e-22
1.06136e-21
2.90695e-21
7.88723e-21
2.11991e-20
5.64435e-20
1.4887e-19
3.88949e-19
1.00662e-18
2.58058e-18
6.55306e-18
1.64831e-17
4.10668e-17
1.01343e-16
2.4771e-16
5.9969e-16
1.43792e-15
3.41475e-15
8.03133e-15
1.87073e-14
4.31536e-14
9.85811e-14
2.23012e-13
4.99585e-13
1.10821e-12
2.43417e-12
5.29398e-12
1.13999e-11
2.43046e-11
5.13015e-11
1.07203e-10
2.2177e-10
4.54145e-10
9.20585e-10
1.8471e-09
3.6682e-09
7.20987e-09
1.40246e-08
2.69973e-08
5.14265e-08
9.69321e-08
1.80773e-07
3.33546e-07
6.08844e-07
1.09939e-06
1.96364e-06
3.46899e-06
6.06094e-06
1.04722e-05
1.78919e-05
3.02246e-05
5.04785e-05
8.33401e-05
0.000136006
0.00021937
0.000349671
0.000550754
0.000857081
0.00131764
0.00200093
0.00300102
0.00444475
0.00649992
0.00938402
0.0133729
0.0188083
0.0261033
0.0357431
0.0482803
0.0643217
0.084505
0.109465
0.139785
0.175946
0.218254
0.266781
0.321297
0.381226
0.445616
0.513146
0.582169
0.650796
0.71702
0.778866
0.834555
0.882668
0.922272
0.952994
0.975033
0.989119
0.996551
0.999348
0.999944
0.999998
1
1
1
1
1
1
1
1
1
1
1
1
1
1
1
1
1
1
1
1
1
1
1
1
1
1
1
1
1
1
1
1
1
1
1
1
1
1
1
1
1
1
1
1
1
1
1
1
1
0.999999
0.999999
0.999998
0.999997
0.999994
0.99999
0.999982
0.99997
0.999949
0.999917
0.999864
0.99978
0.99965
0.999449
0.999142
0.998681
0.997997
0.996996
0.995552
0.993495
0.990609
0.986617
0.981179
0.97388
0.964235
0.951692
0.935643
0.915452
0.890483
0.860152
0.823982
0.781663
0.733127
0.678602
0.618666
0.554271
0.486739
0.417717
0.349094
0.282878
0.221043
0.165366
0.117267
0.0776773
0.0469689
0.0249425
0.0108664
0.00344243
0.000650278
5.53667e-05
1.5355e-06
1.01283e-08
1.21639e-11
2.16072e-15
1.82007e-19
1.54226e-23
1.31907e-27
1.13846e-31
9.8906e-36
8.62235e-40
7.52254e-44
6.55664e-48
5.70457e-52
4.95387e-56
4.29528e-60
3.72038e-64
3.22076e-68
2.78796e-72
2.41374e-76
2.09038e-80
1.81091e-84
1.56921e-88
1.36001e-92
1.17879e-96
1.02173e-100
8.85565e-105
7.67506e-109
6.65149e-113
5.76415e-117
4.99502e-121
4.32845e-125
3.75081e-129
3.25027e-133
2.81654e-137
2.44071e-141
2.11504e-145
1.83282e-149
1.58826e-153
1.37634e-157
1.19268e-161
1.03353e-165
8.95609e-170
7.76091e-174
6.72521e-178
5.8277e-182
5.04996e-186
4.376e-190
3.79197e-194
3.28588e-198
2.84733e-202
2.46731e-206
2.13799e-210
1.85263e-214
1.60535e-218
1.39108e-222
1.2054e-226
1.0445e-230
9.05073e-235
7.84258e-239
6.79568e-243
5.88851e-247
5.10243e-251
4.42128e-255
3.83104e-259
3.3196e-263
2.87642e-267
2.4924e-271
2.15965e-275
1.87131e-279
1.62147e-283
1.40498e-287
1.21739e-291
1.05484e-295
9.13996e-300
7.91955e-304
6.86208e-308
5.94579e-312
5.15184e-316
4.46042e-320
0
0
0
0
0
0
0
0
0
0
0
0
0
0
0
0
0
0
0
0
0
0
0
0
0
0
0
0
0
0
0
0
0
0
0
0
0
0
0
0
0
0
0
0
0
0
0
0
0
0
0
0
0
0
0
0
0
0
0
0
0
0
0
0
0
0
0
0
0
0
0
0
0
0
0
0
0
0
0
0
0
0
0
0
)
;

boundaryField
{
    sides
    {
        type            zeroGradient;
    }
    empty
    {
        type            empty;
    }
}


// ************************************************************************* //
