/*--------------------------------*- C++ -*----------------------------------*\
| =========                 |                                                 |
| \\      /  F ield         | OpenFOAM: The Open Source CFD Toolbox           |
|  \\    /   O peration     | Version:  2312                                  |
|   \\  /    A nd           | Website:  www.openfoam.com                      |
|    \\/     M anipulation  |                                                 |
\*---------------------------------------------------------------------------*/
FoamFile
{
    version     2.0;
    format      ascii;
    arch        "LSB;label=32;scalar=64";
    class       volScalarField;
    location    "2";
    object      T;
}
// * * * * * * * * * * * * * * * * * * * * * * * * * * * * * * * * * * * * * //

dimensions      [0 0 0 1 0 0 0];

internalField   nonuniform List<scalar> 
1000
(
8.30073e-80
-2.22966e-79
6.50498e-79
-1.90187e-78
5.5465e-78
-1.61457e-77
4.69106e-77
-1.36038e-76
3.93747e-76
-1.13748e-75
3.27974e-75
-9.43837e-75
2.71091e-74
-7.77128e-74
2.22344e-73
-6.34906e-73
1.80944e-72
-5.14668e-72
1.46101e-71
-4.13927e-71
1.17039e-70
-3.30275e-70
9.3015e-70
-2.61434e-69
7.33326e-69
-2.05285e-68
5.73508e-68
-1.59897e-67
4.44895e-67
-1.23534e-66
3.42316e-66
-9.46616e-66
2.61231e-65
-7.19408e-65
1.97708e-64
-5.4221e-64
1.48389e-63
-4.05252e-63
1.10442e-62
-3.00347e-62
8.15063e-62
-2.20717e-61
5.96418e-61
-1.60818e-60
4.32698e-60
-1.16171e-59
3.11219e-59
-8.31939e-59
2.21906e-58
-5.90601e-58
1.56843e-57
-4.156e-57
1.09881e-56
-2.89872e-56
7.62992e-56
-2.00383e-55
5.25077e-55
-1.3728e-54
3.581e-54
-9.31996e-54
2.42009e-53
-6.26981e-53
1.62061e-52
-4.17923e-52
1.07525e-51
-2.76e-51
7.06795e-51
-1.80576e-50
4.60257e-50
-1.17035e-49
2.96891e-49
-7.51352e-49
1.89692e-48
-4.77762e-48
1.2004e-47
-3.00874e-47
7.52293e-47
-1.87641e-46
4.66876e-46
-1.15879e-45
2.86902e-45
-7.08568e-45
1.7456e-44
-4.28962e-44
1.05148e-43
-2.57088e-43
6.26988e-43
-1.52521e-42
3.70071e-42
-8.9562e-42
2.16192e-41
-5.20506e-41
1.24991e-40
-2.9936e-40
7.15098e-40
-1.70368e-39
4.04814e-39
-9.59322e-39
2.2673e-38
-5.34418e-38
1.25626e-37
-2.94505e-37
6.88528e-37
-1.6053e-36
3.73244e-36
-8.65415e-36
2.00099e-35
-4.61371e-35
1.0608e-34
-2.43213e-34
5.56039e-34
-1.2676e-33
2.88147e-33
-6.53116e-33
1.47607e-32
-3.32627e-32
7.47368e-32
-1.67429e-31
3.73974e-31
-8.32833e-31
1.84916e-30
-4.09338e-30
9.03392e-30
-1.98769e-29
4.36005e-29
-9.5345e-29
2.07855e-28
-4.51722e-28
9.78641e-28
-2.11353e-27
4.55007e-27
-9.7644e-27
2.08873e-26
-4.45369e-26
9.46564e-26
-2.00523e-25
4.23404e-25
-8.91071e-25
1.86908e-24
-3.90745e-24
8.1414e-24
-1.69058e-23
3.49861e-23
-7.21551e-23
1.483e-22
-3.03745e-22
6.19956e-22
-1.26092e-21
2.55549e-21
-5.16079e-21
1.03848e-20
-2.08217e-20
4.15961e-20
-8.27942e-20
1.6419e-19
-3.24399e-19
6.38541e-19
-1.25217e-18
2.44618e-18
-4.76053e-18
9.22888e-18
-1.78221e-17
3.42823e-17
-6.56857e-17
1.25357e-16
-2.3828e-16
4.51102e-16
-8.50545e-16
1.59713e-15
-2.98668e-15
5.56195e-15
-1.03143e-14
1.90466e-14
-3.50215e-14
6.41182e-14
-1.1688e-13
2.12125e-13
-3.83285e-13
6.89463e-13
-1.23464e-12
2.20088e-12
-3.90529e-12
6.89758e-12
-1.21256e-11
2.12157e-11
-3.69433e-11
6.40199e-11
-1.10402e-10
1.8945e-10
-3.23482e-10
5.49561e-10
-9.28903e-10
1.56202e-09
-2.613e-09
4.34814e-09
-7.19699e-09
1.18482e-08
-1.93991e-08
3.15869e-08
-5.11443e-08
8.2342e-08
-1.3181e-07
2.09768e-07
-3.31866e-07
5.21894e-07
-8.15754e-07
1.26723e-06
-1.95626e-06
3.00078e-06
-4.57333e-06
6.92431e-06
-1.0414e-05
1.55562e-05
-2.30774e-05
3.39944e-05
-4.97177e-05
7.21832e-05
-0.000104021
0.000148763
-0.0002111
0.000297186
-0.000414988
0.000574678
-0.000789053
0.00107395
-0.00144863
0.00193604
-0.00256294
0.00335969
-0.00435973
0.00559845
-0.00711143
0.00893195
-0.0110875
0.0135954
-0.0164577
0.0196554
-0.0231421
0.0268384
-0.030627
0.03435
-0.0378093
0.0407714
-0.042977
0.0441574
-0.0440557
0.042455
-0.0392086
0.0342728
-0.027735
0.019835
-0.0109737
0.00170241
0.00730732
-0.0153179
0.0215999
-0.0255211
0.0266401
-0.0247915
0.0201467
-0.013235
0.00491371
0.00371767
-0.0114564
0.0171722
-0.0199959
0.0194861
-0.0157411
0.00942258
-0.00167573
-0.00605505
0.0122895
-0.0158085
0.0159224
-0.0126486
0.00674364
0.000432136
-0.00720406
0.0119708
-0.0136013
0.0117392
-0.00692343
0.000476853
0.00582729
-0.010245
0.0115594
-0.00945027
0.00461339
0.00142576
-0.00676723
0.00973211
-0.00941217
0.00598598
-0.000679072
-0.0046399
0.00810482
-0.00852023
0.00580704
-0.00104719
-0.00391086
0.00715465
-0.00745635
0.00476903
-0.000256853
-0.00417445
0.00667035
-0.00621784
0.00308941
0.0012692
-0.0048784
0.00612
-0.00448361
0.000808797
0.00310947
-0.00538293
0.00495247
-0.00211473
-0.00162455
0.0043154
-0.00456843
0.00227912
0.00132143
-0.00433473
0.00523603
-0.00372242
0.000888487
0.00138602
-0.00150287
-0.000943361
0.00494881
-0.00872194
0.0107851
-0.0108924
0.0101925
-0.0105171
0.0132279
-0.0183446
0.0245222
-0.0299012
0.0332812
-0.0348371
0.0358847
-0.0378442
0.0411082
-0.0446105
0.0464213
-0.0449723
0.0400581
-0.0329
0.0252347
-0.0181082
0.011287
-0.00374077
-0.00517006
0.0147383
-0.0229719
0.0276895
-0.0278487
0.0241047
-0.0181923
0.0116611
-0.00500783
-0.00209561
0.00972894
-0.0168119
0.021262
-0.0212234
0.0164147
-0.00847723
1.03318e-05
0.0069205
-0.0116002
0.014249
-0.0149598
0.013156
-0.00819405
0.00055775
0.00760199
-0.013326
0.0145675
-0.0113856
0.00564352
0.00042638
-0.00546195
0.00902273
-0.0107531
0.00987344
-0.00578753
-0.000749659
0.00728335
-0.0108548
0.00992321
-0.00535525
-0.000372891
0.00495015
-0.00735525
0.00757593
-0.00572989
0.00189708
0.00312733
-0.00733159
0.0083607
-0.00532917
-0.000171622
0.00505678
-0.00694524
0.00557339
-0.00232672
-0.00122434
0.00410823
-0.00559937
0.00486051
-0.00160237
-0.00288636
0.00596423
-0.00552662
0.00187371
0.0024506
-0.0047846
0.00428878
-0.00194334
-0.000836533
0.00309871
-0.00410037
0.00307911
-4.03069e-05
-0.00338183
0.00468719
-0.00271972
-0.00102206
0.00366408
-0.00355046
0.00136481
0.00109409
-0.00260048
0.00278755
-0.00155347
-0.000825858
0.00302891
-0.00318107
0.000768549
0.00231125
-0.00337805
0.00168899
0.000973724
-0.00240941
0.00202409
-0.000606984
-0.00098347
0.0021119
-0.00196429
0.000155765
0.00210556
-0.00262266
0.000676324
0.00181914
-0.00240493
0.000839472
0.00102955
-0.00168751
0.00116167
-6.05888e-05
-0.00117482
0.00177121
-0.000813514
-0.00120803
0.00217414
-0.000819887
-0.00135085
0.0018844
-0.00050007
-0.000965706
0.00123745
-0.000642644
-0.00022786
0.00109875
-0.00123111
-2.40018e-05
0.00156436
-0.00135513
-0.000538297
0.00167841
-0.000734415
-0.000769326
0.0010602
-0.000400125
-0.000258389
0.000768947
-0.000853191
-0.000115638
0.00132165
-0.000901872
-0.000860671
0.00142627
-4.10151e-05
-0.00109794
0.000629055
0.000232888
-0.000484803
0.000527558
-0.000237842
-0.000720704
0.00101782
0.000338092
-0.00136956
0.000253694
0.00113458
-0.000609917
-0.000509213
0.000487759
-0.000140802
4.94139e-05
0.000516702
-0.000716895
-0.00052929
0.00118848
0.000295614
-0.00125552
-2.93686e-05
0.000895417
-9.26655e-05
-0.000246005
1.6838e-05
-0.00047342
0.000179129
0.00104464
-0.000344934
-0.00130617
0.000347408
0.00117856
-0.000149045
-0.000674137
-0.000159368
-9.47646e-05
0.000391647
0.000911571
-0.000362789
-0.00147964
1.77435e-05
0.00150745
0.000473238
-0.00086255
-0.000738534
-0.000262491
0.000406158
0.00130502
0.000567055
-0.00155751
-0.00165148
0.000677377
0.00190176
0.000804262
-0.000671504
-0.00153785
-0.00148312
0.000382317
0.00268162
0.00208258
-0.00122546
-0.00322221
-0.00198569
0.000737587
0.0030335
0.00355142
0.000881052
-0.00374995
-0.00577177
-0.00256669
0.00312485
0.00686121
0.00639494
0.00138732
-0.00644077
-0.0120168
-0.00990996
3.75241e-05
0.0122847
0.0202249
0.0190264
0.00620177
-0.016005
-0.0386756
-0.0495907
-0.0389465
-0.0012503
0.0654426
0.158535
0.269928
0.38898
0.506746
0.616624
0.712998
0.792152
0.854107
0.901374
0.936065
0.959672
0.974824
0.984911
0.991818
0.995734
0.997305
0.998238
0.999437
1.00017
0.999874
0.999442
0.99982
1.00045
1.00028
0.999612
0.999583
1.00026
1.00052
0.999914
0.999435
0.999873
1.00053
1.00035
0.999595
0.99946
1.00018
1.00064
1.00013
0.99939
0.999556
1.0004
1.00068
0.999956
0.999254
0.999608
1.00055
1.00076
0.999896
0.999131
0.999531
1.00061
1.00093
1.00002
0.999019
0.999245
1.00048
1.00119
1.00044
0.999073
0.998739
0.999926
1.00132
1.00126
0.999711
0.998336
0.998727
1.0006
1.00202
1.00139
0.99917
0.997555
0.998287
1.00088
1.00296
1.0024
0.999417
0.996519
0.996405
0.999572
1.00369
1.00533
1.00271
0.997281
0.99292
0.99324
0.998889
1.00676
1.0117
1.00963
1.00031
0.987956
0.979401
0.980765
0.994187
1.01619
1.03828
1.04942
1.03935
1.00141
0.934151
0.8413
0.730477
0.611197
0.492854
0.383177
0.287393
0.208078
0.145518
0.0983567
0.0642838
0.0406433
0.0248656
0.0147235
0.00843829
0.00468047
0.00251195
0.00130385
0.000654111
0.000316864
0.000148021
6.65628e-05
2.87431e-05
1.18782e-05
4.67475e-06
1.73931e-06
6.04668e-07
1.92398e-07
5.36956e-08
1.1699e-08
9.81194e-10
-8.50951e-10
-6.97196e-10
-3.55562e-10
-1.46597e-10
-5.14535e-11
-1.52369e-11
-3.50438e-12
-3.94346e-13
1.66732e-13
1.4911e-13
7.21397e-14
2.67794e-14
7.96263e-15
1.75391e-15
1.55477e-16
-1.00969e-16
-7.54502e-17
-3.25781e-17
-1.05677e-17
-2.54931e-18
-3.28402e-19
8.06187e-20
7.81291e-20
3.46142e-20
1.09552e-20
2.45785e-21
2.33005e-22
-1.16962e-22
-8.42717e-23
-3.28289e-23
-9.00432e-24
-1.53426e-24
6.01935e-26
1.73513e-25
8.20136e-26
2.52003e-26
5.08462e-27
2.39519e-28
-3.3773e-28
-1.86028e-28
-6.03547e-29
-1.27693e-29
-8.62808e-31
6.91424e-31
4.0036e-31
1.29071e-31
2.63902e-32
1.41173e-33
-1.54599e-33
-8.24312e-34
-2.4816e-34
-4.50431e-35
-1.60476e-37
3.55004e-36
1.5901e-36
4.20734e-37
5.9454e-38
-6.98192e-39
-7.65685e-39
-2.76636e-39
-5.99729e-40
-4.49674e-41
2.63847e-41
1.45319e-41
4.12811e-42
6.43064e-43
-3.8149e-44
-6.30528e-44
-2.3139e-44
-4.88442e-45
-3.16647e-46
2.22453e-46
1.12195e-46
2.91759e-47
3.71831e-48
-5.71141e-49
-4.84734e-49
-1.50793e-49
-2.55177e-50
4.13078e-52
1.89957e-51
7.03694e-52
1.41684e-52
6.87012e-54
-6.84012e-54
-3.04082e-54
-6.92615e-55
-5.97977e-56
2.29204e-56
1.23855e-56
3.09366e-57
3.41583e-58
-7.27133e-59
-4.82096e-59
-1.28864e-59
-1.61936e-60
2.24652e-61
1.81287e-61
5.06818e-62
6.80346e-63
-7.06313e-64
-6.63888e-64
-1.89639e-64
-2.60086e-65
2.37602e-66
2.37905e-66
6.77865e-67
9.14417e-68
-8.76799e-69
-8.35358e-69
-2.3177e-69
-2.96043e-70
3.47236e-71
2.86859e-71
7.57109e-72
8.75869e-73
-1.4068e-73
-9.59035e-74
-2.35461e-74
-2.31906e-75
5.59183e-76
3.10221e-76
6.92964e-77
5.21912e-78
-2.12587e-78
-9.63907e-79
-1.91192e-79
-8.45617e-81
7.62897e-81
2.85403e-81
4.87274e-82
4.25186e-85
-2.5668e-83
-7.98077e-84
-1.11791e-84
7.31096e-86
8.06169e-86
2.08464e-86
2.18624e-87
-4.08297e-88
-2.35371e-88
-5.00973e-89
-3.08993e-90
1.60877e-90
6.35244e-91
1.08046e-91
2.58348e-94
-5.29919e-93
-1.57106e-93
-1.98871e-94
1.91462e-95
1.53101e-95
3.50767e-96
2.70439e-97
-9.17932e-98
-3.93977e-98
-6.87078e-99
-7.61741e-101
3.05653e-100
9.02509e-101
1.10487e-101
-1.13876e-102
-8.3798e-103
-1.81243e-103
-1.15331e-104
5.20032e-105
1.97408e-105
3.05932e-106
-6.29414e-108
-1.57073e-107
-4.0118e-108
-3.81976e-109
7.74167e-110
3.81871e-110
6.84808e-111
1.38311e-112
-2.6783e-112
-7.78632e-113
-8.94663e-114
1.04892e-114
6.71105e-115
1.31681e-115
5.48532e-117
-4.27653e-117
-1.35881e-117
-1.70826e-118
1.38645e-119
1.09191e-119
2.23801e-120
1.13931e-121
-6.54934e-122
-2.16367e-122
-2.78586e-123
1.95966e-124
1.6636e-124
3.4085e-125
1.72494e-126
-9.74706e-127
-3.16564e-127
-3.94302e-128
3.09314e-129
2.38193e-129
4.67237e-130
1.94285e-131
-1.40728e-131
-4.25761e-132
-4.83431e-133
5.16566e-134
3.19328e-134
5.74558e-135
1.3412e-136
-1.94352e-136
-5.23637e-137
-5.02492e-138
8.37392e-139
3.97158e-139
6.26457e-140
-4.10968e-142
-2.51715e-141
-5.82713e-142
-4.16065e-143
1.24478e-143
4.52312e-144
5.91166e-145
-3.26439e-146
-2.99715e-146
-5.76865e-147
-2.18346e-148
1.65154e-148
4.64107e-149
4.58342e-150
-6.64199e-151
-3.22138e-151
-4.94078e-152
5.3121e-154
1.93082e-153
4.20121e-154
2.5105e-155
-9.56166e-156
-3.06878e-156
-3.46699e-157
3.24313e-158
1.97064e-158
3.2493e-159
2.26919e-161
-1.10434e-160
-2.53313e-161
-1.7105e-162
5.14315e-163
1.73485e-163
2.01483e-164
-1.63673e-165
-1.05983e-165
-1.74642e-166
-1.36324e-168
5.73164e-168
1.28984e-168
8.23504e-170
-2.63628e-170
-8.48664e-171
-9.26226e-172
8.94041e-173
5.04521e-173
7.74751e-174
-4.80927e-176
-2.70094e-175
-5.56173e-176
-2.74789e-177
1.27038e-177
3.58471e-178
3.32426e-179
-4.86024e-180
-2.10926e-180
-2.80439e-181
1.06447e-182
1.1358e-182
2.00645e-183
4.62305e-185
-5.53802e-185
-1.28872e-185
-8.64052e-187
2.36552e-187
7.62202e-188
5.91683e-189
)
;

boundaryField
{
    sides
    {
        type            zeroGradient;
    }
    empty
    {
        type            empty;
    }
}


// ************************************************************************* //
