/*--------------------------------*- C++ -*----------------------------------*\
| =========                 |                                                 |
| \\      /  F ield         | OpenFOAM: The Open Source CFD Toolbox           |
|  \\    /   O peration     | Version:  2312                                  |
|   \\  /    A nd           | Website:  www.openfoam.com                      |
|    \\/     M anipulation  |                                                 |
\*---------------------------------------------------------------------------*/
FoamFile
{
    version     2.0;
    format      ascii;
    arch        "LSB;label=32;scalar=64";
    class       volScalarField;
    location    "5";
    object      T;
}
// * * * * * * * * * * * * * * * * * * * * * * * * * * * * * * * * * * * * * //

dimensions      [0 0 0 1 0 0 0];

internalField   nonuniform List<scalar> 
1000
(
6.96695e-06
6.97531e-06
6.9983e-06
7.03597e-06
7.08839e-06
7.15563e-06
7.23782e-06
7.3351e-06
7.44762e-06
7.57559e-06
7.71922e-06
7.87875e-06
8.05445e-06
8.24663e-06
8.4556e-06
8.68171e-06
8.92535e-06
9.18693e-06
9.46688e-06
9.76567e-06
1.00838e-05
1.04218e-05
1.07802e-05
1.11597e-05
1.15608e-05
1.19841e-05
1.24305e-05
1.29006e-05
1.33952e-05
1.39151e-05
1.44612e-05
1.50342e-05
1.56352e-05
1.6265e-05
1.69248e-05
1.76155e-05
1.83382e-05
1.90941e-05
1.98843e-05
2.07101e-05
2.15728e-05
2.24737e-05
2.34142e-05
2.43957e-05
2.54197e-05
2.64877e-05
2.76015e-05
2.87627e-05
2.99729e-05
3.1234e-05
3.2548e-05
3.39166e-05
3.5342e-05
3.68261e-05
3.83713e-05
3.99796e-05
4.16534e-05
4.33951e-05
4.52073e-05
4.70923e-05
4.9053e-05
5.1092e-05
5.32122e-05
5.54166e-05
5.77081e-05
6.00899e-05
6.25653e-05
6.51376e-05
6.78103e-05
7.0587e-05
7.34713e-05
7.64672e-05
7.95785e-05
8.28093e-05
8.61639e-05
8.96466e-05
9.32619e-05
9.70144e-05
0.000100909
0.00010495
0.000109144
0.000113495
0.000118008
0.00012269
0.000127546
0.000132581
0.000137803
0.000143217
0.000148831
0.000154649
0.000160681
0.000166932
0.00017341
0.000180122
0.000187077
0.000194281
0.000201745
0.000209475
0.000217481
0.000225772
0.000234357
0.000243245
0.000252446
0.000261971
0.000271829
0.000282032
0.00029259
0.000303514
0.000314816
0.000326509
0.000338603
0.000351112
0.000364049
0.000377426
0.000391258
0.000405558
0.000420342
0.000435622
0.000451416
0.000467737
0.000484603
0.000502029
0.000520032
0.00053863
0.00055784
0.00057768
0.000598169
0.000619326
0.00064117
0.000663722
0.000687002
0.000711031
0.000735831
0.000761423
0.000787831
0.000815077
0.000843185
0.00087218
0.000902087
0.00093293
0.000964737
0.000997533
0.00103135
0.0010662
0.00110214
0.00113917
0.00117734
0.00121667
0.0012572
0.00129895
0.00134196
0.00138627
0.0014319
0.0014789
0.00152729
0.00157711
0.00162841
0.00168122
0.00173557
0.00179152
0.00184909
0.00190833
0.00196928
0.00203199
0.00209649
0.00216284
0.00223107
0.00230124
0.0023734
0.00244758
0.00252385
0.00260224
0.00268282
0.00276563
0.00285072
0.00293816
0.00302799
0.00312028
0.00321507
0.00331243
0.00341242
0.00351509
0.00362051
0.00372874
0.00383984
0.00395388
0.00407092
0.00419103
0.00431427
0.00444072
0.00457045
0.00470352
0.00484001
0.00497999
0.00512354
0.00527073
0.00542163
0.00557633
0.0057349
0.00589742
0.00606398
0.00623466
0.00640954
0.00658869
0.00677222
0.00696021
0.00715274
0.0073499
0.00755179
0.00775849
0.0079701
0.00818671
0.00840842
0.00863532
0.0088675
0.00910507
0.00934813
0.00959677
0.0098511
0.0101112
0.0103772
0.0106492
0.0109273
0.0112117
0.0115023
0.0117994
0.012103
0.0124132
0.0127302
0.0130541
0.0133849
0.0137228
0.014068
0.0144205
0.0147804
0.0151479
0.015523
0.015906
0.0162969
0.0166958
0.0171029
0.0175183
0.017942
0.0183743
0.0188153
0.019265
0.0197236
0.0201912
0.020668
0.0211541
0.0216496
0.0221546
0.0226692
0.0231937
0.023728
0.0242724
0.024827
0.0253918
0.0259671
0.0265529
0.0271494
0.0277567
0.0283749
0.0290041
0.0296446
0.0302964
0.0309595
0.0316343
0.0323207
0.033019
0.0337291
0.0344514
0.0351858
0.0359325
0.0366916
0.0374632
0.0382475
0.0390446
0.0398546
0.0406775
0.0415136
0.0423629
0.0432256
0.0441016
0.0449913
0.0458946
0.0468117
0.0477426
0.0486876
0.0496466
0.0506197
0.0516071
0.0526089
0.0536251
0.0546559
0.0557013
0.0567613
0.0578362
0.0589259
0.0600306
0.0611502
0.062285
0.0634349
0.0646
0.0657803
0.066976
0.0681871
0.0694136
0.0706557
0.0719132
0.0731863
0.074475
0.0757794
0.0770994
0.0784351
0.0797865
0.0811537
0.0825366
0.0839353
0.0853497
0.0867799
0.0882259
0.0896876
0.0911651
0.0926583
0.0941672
0.0956918
0.097232
0.0987878
0.100359
0.101946
0.103549
0.105166
0.1068
0.108448
0.110112
0.111791
0.113485
0.115194
0.116917
0.118656
0.120409
0.122177
0.123959
0.125756
0.127567
0.129391
0.13123
0.133083
0.134949
0.136829
0.138722
0.140628
0.142547
0.144479
0.146424
0.148381
0.15035
0.152332
0.154325
0.156329
0.158345
0.160373
0.162411
0.16446
0.166519
0.168588
0.170668
0.172757
0.174855
0.176963
0.179079
0.181204
0.183337
0.185478
0.187627
0.189783
0.191946
0.194116
0.196292
0.198474
0.200662
0.202856
0.205054
0.207257
0.209464
0.211675
0.21389
0.216108
0.218329
0.220553
0.222778
0.225005
0.227233
0.229463
0.231692
0.233922
0.236151
0.23838
0.240607
0.242833
0.245057
0.247278
0.249497
0.251712
0.253923
0.256131
0.258333
0.26053
0.262722
0.264908
0.267088
0.26926
0.271425
0.273583
0.275732
0.277872
0.280003
0.282124
0.284236
0.286336
0.288426
0.290504
0.29257
0.294624
0.296664
0.298692
0.300705
0.302704
0.304689
0.306658
0.308611
0.310548
0.312469
0.314372
0.316258
0.318126
0.319976
0.321806
0.323618
0.325409
0.327181
0.328931
0.330661
0.332369
0.334055
0.335719
0.33736
0.338978
0.340572
0.342142
0.343688
0.345209
0.346705
0.348175
0.349619
0.351037
0.352428
0.353793
0.35513
0.356439
0.35772
0.358972
0.360196
0.361391
0.362556
0.363692
0.364797
0.365873
0.366918
0.367931
0.368914
0.369865
0.370785
0.371673
0.372528
0.373352
0.374142
0.3749
0.375625
0.376317
0.376975
0.377599
0.37819
0.378747
0.37927
0.379759
0.380213
0.380633
0.381018
0.381369
0.381684
0.381965
0.382211
0.382422
0.382598
0.382739
0.382845
0.382915
0.38295
0.38295
0.382915
0.382845
0.382739
0.382598
0.382422
0.382211
0.381965
0.381684
0.381369
0.381018
0.380633
0.380213
0.379759
0.37927
0.378747
0.37819
0.377599
0.376975
0.376317
0.375625
0.3749
0.374142
0.373352
0.372528
0.371673
0.370785
0.369865
0.368914
0.367931
0.366918
0.365873
0.364797
0.363692
0.362556
0.361391
0.360196
0.358972
0.35772
0.356439
0.35513
0.353793
0.352428
0.351037
0.349619
0.348175
0.346705
0.345209
0.343688
0.342142
0.340572
0.338978
0.33736
0.335719
0.334055
0.332369
0.330661
0.328931
0.327181
0.325409
0.323618
0.321806
0.319976
0.318126
0.316258
0.314372
0.312469
0.310548
0.308611
0.306658
0.304689
0.302704
0.300705
0.298692
0.296664
0.294624
0.29257
0.290504
0.288426
0.286336
0.284236
0.282124
0.280003
0.277872
0.275732
0.273583
0.271425
0.26926
0.267088
0.264908
0.262722
0.26053
0.258333
0.256131
0.253923
0.251712
0.249497
0.247278
0.245057
0.242833
0.240607
0.23838
0.236151
0.233922
0.231692
0.229463
0.227233
0.225005
0.222778
0.220553
0.218329
0.216108
0.21389
0.211675
0.209464
0.207257
0.205054
0.202856
0.200662
0.198474
0.196292
0.194116
0.191946
0.189783
0.187627
0.185478
0.183337
0.181204
0.179079
0.176963
0.174855
0.172757
0.170668
0.168588
0.166519
0.16446
0.162411
0.160373
0.158345
0.156329
0.154325
0.152332
0.15035
0.148381
0.146424
0.144479
0.142547
0.140628
0.138722
0.136829
0.134949
0.133083
0.13123
0.129391
0.127567
0.125756
0.123959
0.122177
0.120409
0.118656
0.116917
0.115194
0.113485
0.111791
0.110112
0.108448
0.1068
0.105166
0.103549
0.101946
0.100359
0.0987878
0.097232
0.0956918
0.0941672
0.0926583
0.0911651
0.0896876
0.0882259
0.0867799
0.0853497
0.0839353
0.0825366
0.0811537
0.0797865
0.0784351
0.0770994
0.0757794
0.074475
0.0731863
0.0719132
0.0706557
0.0694136
0.0681871
0.066976
0.0657803
0.0646
0.0634349
0.062285
0.0611502
0.0600306
0.0589259
0.0578362
0.0567613
0.0557013
0.0546559
0.0536251
0.0526089
0.0516071
0.0506197
0.0496466
0.0486876
0.0477426
0.0468117
0.0458946
0.0449913
0.0441016
0.0432256
0.0423629
0.0415136
0.0406775
0.0398546
0.0390446
0.0382475
0.0374632
0.0366916
0.0359325
0.0351858
0.0344514
0.0337291
0.033019
0.0323207
0.0316343
0.0309595
0.0302964
0.0296446
0.0290041
0.0283749
0.0277567
0.0271494
0.0265529
0.0259671
0.0253918
0.024827
0.0242724
0.023728
0.0231937
0.0226692
0.0221546
0.0216496
0.0211541
0.020668
0.0201912
0.0197236
0.019265
0.0188153
0.0183743
0.017942
0.0175183
0.0171029
0.0166958
0.0162969
0.015906
0.015523
0.0151479
0.0147804
0.0144205
0.014068
0.0137228
0.0133849
0.0130541
0.0127302
0.0124132
0.012103
0.0117994
0.0115023
0.0112117
0.0109273
0.0106492
0.0103772
0.0101112
0.0098511
0.00959677
0.00934813
0.00910507
0.0088675
0.00863532
0.00840842
0.00818671
0.0079701
0.00775849
0.00755179
0.0073499
0.00715274
0.00696021
0.00677222
0.00658869
0.00640954
0.00623466
0.00606398
0.00589742
0.0057349
0.00557633
0.00542163
0.00527073
0.00512354
0.00497999
0.00484001
0.00470352
0.00457045
0.00444072
0.00431427
0.00419103
0.00407092
0.00395388
0.00383984
0.00372874
0.00362051
0.00351509
0.00341242
0.00331243
0.00321507
0.00312028
0.00302799
0.00293816
0.00285072
0.00276563
0.00268282
0.00260224
0.00252385
0.00244758
0.0023734
0.00230124
0.00223107
0.00216284
0.00209649
0.00203199
0.00196928
0.00190833
0.00184909
0.00179152
0.00173557
0.00168122
0.00162841
0.00157711
0.00152729
0.0014789
0.0014319
0.00138627
0.00134196
0.00129895
0.0012572
0.00121667
0.00117734
0.00113917
0.00110214
0.0010662
0.00103135
0.000997533
0.000964737
0.00093293
0.000902087
0.00087218
0.000843185
0.000815077
0.000787831
0.000761423
0.000735831
0.000711031
0.000687002
0.000663722
0.00064117
0.000619326
0.000598169
0.00057768
0.00055784
0.00053863
0.000520032
0.000502029
0.000484603
0.000467737
0.000451416
0.000435622
0.000420342
0.000405558
0.000391258
0.000377426
0.000364049
0.000351112
0.000338603
0.000326509
0.000314816
0.000303514
0.00029259
0.000282032
0.000271829
0.000261971
0.000252446
0.000243245
0.000234357
0.000225772
0.000217481
0.000209475
0.000201745
0.000194281
0.000187077
0.000180122
0.00017341
0.000166932
0.000160681
0.000154649
0.000148831
0.000143217
0.000137803
0.000132581
0.000127546
0.00012269
0.000118008
0.000113495
0.000109144
0.00010495
0.000100909
9.70144e-05
9.32619e-05
8.96466e-05
8.61639e-05
8.28093e-05
7.95785e-05
7.64672e-05
7.34713e-05
7.0587e-05
6.78103e-05
6.51376e-05
6.25653e-05
6.00899e-05
5.77081e-05
5.54166e-05
5.32122e-05
5.1092e-05
4.9053e-05
4.70923e-05
4.52073e-05
4.33951e-05
4.16534e-05
3.99796e-05
3.83713e-05
3.68261e-05
3.5342e-05
3.39166e-05
3.2548e-05
3.1234e-05
2.99729e-05
2.87627e-05
2.76015e-05
2.64877e-05
2.54197e-05
2.43957e-05
2.34142e-05
2.24737e-05
2.15728e-05
2.07101e-05
1.98843e-05
1.90941e-05
1.83382e-05
1.76155e-05
1.69248e-05
1.6265e-05
1.56352e-05
1.50342e-05
1.44612e-05
1.39151e-05
1.33952e-05
1.29006e-05
1.24305e-05
1.19841e-05
1.15608e-05
1.11597e-05
1.07802e-05
1.04218e-05
1.00838e-05
9.76567e-06
9.46688e-06
9.18693e-06
8.92535e-06
8.68171e-06
8.4556e-06
8.24663e-06
8.05445e-06
7.87875e-06
7.71922e-06
7.57559e-06
7.44762e-06
7.3351e-06
7.23782e-06
7.15563e-06
7.08839e-06
7.03597e-06
6.9983e-06
6.97531e-06
6.96695e-06
)
;

boundaryField
{
    sides
    {
        type            zeroGradient;
    }
    empty
    {
        type            empty;
    }
}


// ************************************************************************* //
