/*--------------------------------*- C++ -*----------------------------------*\
| =========                 |                                                 |
| \\      /  F ield         | OpenFOAM: The Open Source CFD Toolbox           |
|  \\    /   O peration     | Version:  2312                                  |
|   \\  /    A nd           | Website:  www.openfoam.com                      |
|    \\/     M anipulation  |                                                 |
\*---------------------------------------------------------------------------*/
FoamFile
{
    version     2.0;
    format      ascii;
    arch        "LSB;label=32;scalar=64";
    class       volScalarField;
    location    "2.5";
    object      T;
}
// * * * * * * * * * * * * * * * * * * * * * * * * * * * * * * * * * * * * * //

dimensions      [0 0 0 1 0 0 0];

internalField   nonuniform List<scalar> 
1000
(
0
0
0
0
0
0
0
0
0
0
0
0
0
0
0
0
0
0
0
0
0
0
0
0
0
0
0
0
0
0
0
0
0
0
0
0
0
0
0
0
0
0
0
0
0
0
0
0
0
0
0
0
0
0
0
0
0
0
0
0
0
0
0
0
0
0
0
0
0
0
0
0
0
0
0
0
0
0
0
0
0
0
0
0
0
0
0
0
0
0
0
0
0
0
0
0
0
0
0
0
0
0
0
0
0
0
0
0
0
0
0
0
0
0
0
0
0
0
0
0
0
0
0
0
0
0
0
0
0
0
0
0
0
0
0
0
0
0
0
0
0
0
0
0
0
0
0
0
0
0
0
0
0
0
0
0
0
0
0
0
0
0
0
0
0
0
0
0
0
0
0
0
0
0
0
0
0
0
0
0
0
0
0
0
0
0
0
0
0
0
0
0
0
0
0
0
0
0
0
0
0
0
0
0
0
0
0
0
0
0
0
0
0
0
0
0
0
0
0
0
0
0
0
0
0
0
0
0
0
0
0
0
0
0
0
0
0
0
0
0
0
0
0
0
0
0
0
0
0
0
0
0
0
0
0
0
0
0
0
0
0
0
0
0
0
0
0
0
0
0
0
0
0
0
0
0
0
0
0
0
0
0
0
0
0
0
0
0
0
0
0
0
0
0
0
0
0
0
0
0
0
0
0
0
0
0
0
0
0
0
0
0
0
0
0
0
0
0
0
0
0
0
0
0
0
0
0
0
0
0
0
0
0
0
0
0
0
0
0
0
0
0
0
0
0
0
0
0
0
0
0
0
0
0
0
0
0
0
0
0
0
0
0
0
0
0
0
0
0
0
0
0
0
0
0
0
0
0
0
0
0
0
0
0
0
0
0
0
0
0
0
0
0
0
0
0
0
0
0
0
0
0
0
0
2.02994e-102
-1.36269e-86
8.18812e-79
-4.77754e-75
-3.03524e-73
-2.35394e-72
5.1875e-70
3.32434e-68
1.20459e-66
3.18682e-65
6.73399e-64
1.19124e-62
1.81682e-61
2.43803e-60
2.92183e-59
3.16305e-58
3.12073e-57
2.82605e-56
2.36228e-55
1.83088e-54
1.32035e-53
8.88252e-53
5.5837e-52
3.28186e-51
1.80232e-50
9.22468e-50
4.37568e-49
1.90209e-48
7.40123e-48
2.43534e-47
5.56291e-47
-3.02432e-47
-1.4376e-45
-1.19083e-44
-7.39307e-44
-3.98726e-43
-1.96276e-42
-9.02352e-42
-3.92366e-41
-1.62618e-40
-6.45651e-40
-2.46419e-39
-9.06269e-39
-3.21759e-38
-1.10435e-37
-3.66858e-37
-1.18085e-36
-3.68716e-36
-1.1183e-35
-3.29947e-35
-9.48711e-35
-2.66398e-34
-7.32234e-34
-1.97498e-33
-5.23964e-33
-1.37003e-32
-3.53511e-32
-9.00419e-32
-2.26196e-31
-5.5933e-31
-1.3575e-30
-3.22231e-30
-7.45159e-30
-1.67195e-29
-3.62523e-29
-7.56626e-29
-1.5146e-28
-2.89972e-28
-5.30455e-28
-9.30533e-28
-1.58668e-27
-2.71533e-27
-4.92355e-27
-9.97751e-27
-2.27024e-26
-5.51151e-26
-1.34274e-25
-3.14825e-25
-6.93825e-25
-1.41499e-24
-2.62529e-24
-4.30017e-24
-5.77892e-24
-4.76267e-24
4.5156e-24
3.40738e-23
1.05337e-22
2.50299e-22
5.04743e-22
8.81647e-22
1.30518e-21
1.4794e-21
6.69694e-22
-2.59305e-21
-1.0787e-20
-2.7372e-20
-5.58721e-20
-9.70645e-20
-1.42865e-19
-1.65458e-19
-1.01182e-19
1.68375e-19
8.29241e-19
2.12235e-18
4.27061e-18
7.29452e-18
1.06588e-17
1.27245e-17
1.00391e-17
-3.55474e-18
-3.76806e-17
-1.04758e-16
-2.152e-16
-3.63646e-16
-5.04081e-16
-5.28968e-16
2.54579e-16
2.80023e-15
5.527e-15
2.88627e-15
-1.11525e-14
-2.22084e-14
-2.04438e-15
4.7856e-14
5.52334e-14
-3.95291e-14
-1.58785e-13
-8.36677e-14
2.41864e-13
4.14139e-13
-4.42081e-14
-9.00009e-13
-8.39941e-13
8.55022e-13
2.61908e-12
1.21253e-12
-3.9133e-12
-6.63256e-12
-1.4622e-13
1.34018e-11
1.51517e-11
-7.2361e-12
-3.91546e-11
-3.33418e-11
3.48598e-11
1.08065e-10
6.98492e-11
-1.20409e-10
-2.88692e-10
-1.49201e-10
3.60934e-10
7.62991e-10
3.56048e-10
-9.76384e-10
-2.01404e-09
-1.01272e-09
2.4016e-09
5.33302e-09
3.2516e-09
-5.27998e-09
-1.38931e-08
-1.09467e-08
9.19367e-09
3.53518e-08
3.55773e-08
-7.8433e-09
-8.09514e-08
-1.10305e-07
-3.24163e-08
1.55846e-07
3.08247e-07
2.27699e-07
-1.82836e-07
-7.37705e-07
-8.85433e-07
-2.31032e-07
1.23342e-06
2.56884e-06
2.28508e-06
-4.5998e-07
-5.06672e-06
-8.17177e-06
-6.00021e-06
3.28902e-06
1.72854e-05
2.57992e-05
1.88486e-05
-9.06063e-06
-5.19814e-05
-8.36861e-05
-7.27576e-05
-2.79879e-07
0.000129216
0.000262731
0.00029456
0.000163743
-0.000172963
-0.000655548
-0.0010736
-0.00109332
-0.000569627
0.000657537
0.00244603
0.0042394
0.00500827
0.0040641
0.00075131
-0.00528663
-0.0134848
-0.022154
-0.028258
-0.0281526
-0.0201212
-0.000704455
0.0326012
0.0810595
0.144403
0.220815
0.30715
0.399355
0.492996
0.583797
0.668108
0.743216
0.807491
0.860368
0.902193
0.933991
0.957206
0.973457
0.984336
0.991278
0.995475
0.997861
0.999117
0.999715
0.999955
1
1
1
1
1
1
1
1
1
1
1
1
1
1
1
1
1
1
1
1
1
1
1
1
1
1
1
1
1
1
1
1
1
1
1
1
1
1
1
0.999999
0.999997
0.999998
1
1.00001
1.00001
1.00001
0.999997
0.999983
0.999974
0.999981
1.00001
1.00005
1.00008
1.00007
1
0.999871
0.999738
0.999706
0.999837
1.00017
1.00066
1.00107
1.00109
1.00057
0.999341
0.997553
0.99576
0.994994
0.99594
0.999261
1.00529
1.0135
1.02217
1.02825
1.02813
1.02008
1.00065
0.967324
0.918847
0.855489
0.779067
0.692727
0.600524
0.50689
0.4161
0.331803
0.256711
0.192451
0.139587
0.0977743
0.0659861
0.0427786
0.0265339
0.0156582
0.00871932
0.00452337
0.00213866
0.000882313
0.0002845
4.51289e-05
2.08071e-16
2.03791e-16
2.01176e-16
1.95314e-16
1.86641e-16
1.75805e-16
1.63438e-16
1.5011e-16
1.3632e-16
1.2249e-16
1.08966e-16
9.60179e-17
8.38453e-17
7.25856e-17
6.23206e-17
5.30854e-17
4.48773e-17
3.76637e-17
3.13904e-17
2.59883e-17
2.13791e-17
1.74805e-17
1.42096e-17
1.14866e-17
9.23615e-18
7.38891e-18
5.88246e-18
4.66143e-18
3.67746e-18
2.88886e-18
2.26009e-18
1.76123e-18
1.36727e-18
1.05754e-18
8.15059e-19
6.25995e-19
4.79157e-19
3.65544e-19
2.77957e-19
2.10676e-19
1.59171e-19
1.19877e-19
8.99995e-20
6.73571e-20
5.02537e-20
3.73763e-20
2.7712e-20
2.04824e-20
1.50916e-20
1.10848e-20
8.11627e-21
5.92401e-21
4.31025e-21
3.12618e-21
2.2602e-21
1.62891e-21
1.17021e-21
8.37988e-22
5.98166e-22
4.2561e-22
3.0186e-22
2.13403e-22
1.50382e-22
1.05631e-22
7.39575e-23
5.16143e-23
3.5905e-23
2.48964e-23
1.72073e-23
1.18546e-23
8.14062e-24
5.5722e-24
3.80185e-24
2.58562e-24
1.75282e-24
1.18444e-24
7.97802e-25
5.35656e-25
3.58499e-25
2.39169e-25
1.59051e-25
1.05436e-25
6.9673e-26
4.58951e-26
3.01368e-26
1.9727e-26
1.28724e-26
8.37339e-27
5.42983e-27
3.5101e-27
2.26206e-27
1.45327e-27
9.3078e-28
5.9431e-28
3.7831e-28
2.40079e-28
1.51893e-28
9.58084e-29
6.02496e-29
3.77741e-29
2.36118e-29
1.4715e-29
9.14315e-30
5.66419e-30
3.49857e-30
2.15456e-30
1.32295e-30
8.09945e-31
4.94417e-31
3.00928e-31
1.82629e-31
1.10513e-31
6.66812e-32
4.01181e-32
2.40674e-32
1.43971e-32
8.58772e-33
5.10794e-33
3.02957e-33
1.79179e-33
1.05674e-33
6.21478e-34
3.64474e-34
2.13154e-34
1.24311e-34
7.2297e-35
4.19301e-35
2.42512e-35
1.39876e-35
8.04561e-36
4.61516e-36
2.64015e-36
1.50621e-36
8.56971e-37
4.86261e-37
2.7517e-37
1.55297e-37
8.74094e-38
4.90672e-38
2.74704e-38
1.53385e-38
8.54173e-39
4.74417e-39
2.62802e-39
1.45195e-39
8.00085e-40
4.39727e-40
2.41044e-40
1.31788e-40
7.18672e-41
3.90895e-41
2.12064e-41
1.14751e-41
6.1934e-42
3.33418e-42
1.79036e-42
9.58925e-43
5.12302e-43
2.73002e-43
1.45114e-43
7.6941e-44
4.06925e-44
2.14676e-44
1.12971e-44
5.93015e-45
3.10518e-45
1.62192e-45
8.45084e-46
4.39237e-46
2.27735e-46
1.17787e-46
6.07714e-47
3.12783e-47
1.60595e-47
8.22557e-48
4.2029e-48
2.14232e-48
1.08937e-48
5.52618e-49
2.79662e-49
1.41191e-49
7.11125e-50
3.57318e-50
1.79116e-50
8.95756e-51
4.46913e-51
2.22452e-51
1.10467e-51
5.47285e-52
2.70511e-52
1.33397e-52
6.563e-53
3.22148e-53
1.57764e-53
7.70838e-54
3.75771e-54
1.82764e-54
8.86888e-55
4.29398e-55
2.07428e-55
9.99752e-56
4.80771e-56
2.30679e-56
1.10435e-56
5.2751e-57
2.51413e-57
1.19558e-57
5.67294e-58
2.68582e-58
1.26878e-58
5.98055e-59
2.81283e-59
1.32006e-59
6.18156e-60
2.8884e-60
1.34671e-60
6.26541e-61
2.90863e-61
1.34739e-61
6.22821e-62
2.87279e-62
1.32226e-62
6.07304e-63
2.78338e-63
1.27297e-63
5.80959e-64
2.64581e-64
1.20243e-64
5.45315e-65
2.46791e-65
1.11456e-65
5.02317e-66
2.25917e-66
1.01396e-66
4.5415e-67
2.02994e-67
9.05472e-68
4.03068e-68
1.79058e-68
7.93827e-69
3.51217e-69
1.55076e-69
6.83341e-70
3.00507e-70
1.31886e-70
5.7766e-71
2.52509e-71
1.10158e-71
4.79613e-72
2.08403e-72
9.03771e-73
3.9116e-73
1.68965e-73
7.28424e-74
3.13417e-74
1.3459e-74
5.76839e-75
2.46748e-75
1.05344e-75
)
;

boundaryField
{
    sides
    {
        type            zeroGradient;
    }
    empty
    {
        type            empty;
    }
}


// ************************************************************************* //
