/*--------------------------------*- C++ -*----------------------------------*\
| =========                 |                                                 |
| \\      /  F ield         | OpenFOAM: The Open Source CFD Toolbox           |
|  \\    /   O peration     | Version:  2312                                  |
|   \\  /    A nd           | Website:  www.openfoam.com                      |
|    \\/     M anipulation  |                                                 |
\*---------------------------------------------------------------------------*/
FoamFile
{
    version     2.0;
    format      ascii;
    arch        "LSB;label=32;scalar=64";
    class       volScalarField;
    location    "3.1";
    object      T;
}
// * * * * * * * * * * * * * * * * * * * * * * * * * * * * * * * * * * * * * //

dimensions      [0 0 0 1 0 0 0];

internalField   nonuniform List<scalar> 
1000
(
0
0
0
0
0
0
0
0
0
0
0
0
0
0
0
0
0
0
0
0
0
0
0
0
0
0
0
0
0
0
0
0
0
0
0
0
0
0
0
0
0
0
0
0
0
0
0
0
0
0
0
0
0
0
0
0
0
0
0
0
0
0
0
0
0
0
0
0
0
0
0
0
0
0
0
0
0
0
0
0
0
0
0
0
0
0
0
0
0
0
0
0
0
0
0
0
0
0
0
0
0
0
0
0
0
0
0
0
0
0
0
0
0
0
0
0
0
0
0
0
0
0
0
0
0
0
0
0
0
0
0
0
0
0
0
0
0
0
0
0
0
0
0
0
0
0
0
0
0
0
0
0
0
0
0
0
0
0
0
0
0
0
0
0
0
0
0
0
0
0
0
0
0
0
0
0
0
0
0
0
0
0
0
0
0
0
0
0
0
0
0
0
0
0
0
0
0
0
0
0
0
0
0
0
0
0
0
0
0
0
0
0
0
0
0
0
0
0
0
0
0
0
0
0
0
0
0
0
0
0
0
0
0
0
0
0
0
0
0
0
0
0
0
0
0
0
0
0
0
0
0
0
0
0
0
0
0
0
0
0
0
0
0
0
0
0
0
0
0
0
0
0
0
0
0
0
0
0
0
0
0
0
0
0
0
0
0
0
0
0
0
0
0
0
0
0
0
0
0
0
0
0
0
0
0
0
0
0
0
0
0
0
0
0
0
0
0
0
0
0
0
0
0
0
0
0
0
0
0
0
0
0
0
0
0
0
0
0
0
0
0
0
0
0
0
0
0
0
0
0
0
0
0
0
0
0
0
0
0
0
0
0
0
0
0
0
0
0
0
0
0
0
0
0
0
0
0
0
0
0
0
0
0
0
0
0
0
0
0
0
0
0
0
0
0
0
0
0
0
0
0
0
0
0
1.4935e-119
-1.00258e-103
6.02432e-96
-3.49202e-92
-3.57084e-90
-1.28193e-88
1.19768e-87
3.53705e-85
2.06026e-83
7.83784e-82
2.2977e-80
5.55006e-79
1.14637e-77
2.07395e-76
3.34284e-75
4.86213e-74
6.44569e-73
7.85116e-72
8.84469e-71
9.2662e-70
9.0699e-69
8.32707e-68
7.19492e-67
5.86741e-66
4.52696e-65
3.31126e-64
2.30001e-63
1.51909e-62
9.54891e-62
5.71545e-61
3.25727e-60
1.76621e-59
9.0964e-59
4.43535e-58
2.03574e-57
8.70443e-57
3.39824e-56
1.15814e-55
3.01174e-55
1.96224e-55
-4.6901e-54
-4.58079e-53
-3.07084e-52
-1.75835e-51
-9.15761e-51
-4.4576e-50
-2.05741e-49
-9.08219e-49
-3.85616e-48
-1.58091e-47
-6.27592e-47
-2.41766e-46
-9.05285e-46
-3.29937e-45
-1.17171e-44
-4.05853e-44
-1.37232e-43
-4.5334e-43
-1.46424e-42
-4.62758e-42
-1.43213e-41
-4.34352e-41
-1.29209e-40
-3.77314e-40
-1.08254e-39
-3.05407e-39
-8.4794e-39
-2.31856e-38
-6.24753e-38
-1.65973e-37
-4.34842e-37
-1.12362e-36
-2.86316e-36
-7.19217e-36
-1.78006e-35
-4.33798e-35
-1.04014e-34
-2.4519e-34
-5.67798e-34
-1.29083e-33
-2.87939e-33
-6.3003e-33
-1.35228e-32
-2.84857e-32
-5.89525e-32
-1.2008e-31
-2.41372e-31
-4.80513e-31
-9.51492e-31
-1.88282e-30
-3.73873e-30
-7.46961e-30
-1.50184e-29
-3.03088e-29
-6.10814e-29
-1.22085e-28
-2.40126e-28
-4.60925e-28
-8.55787e-28
-1.52102e-27
-2.55214e-27
-3.95389e-27
-5.41241e-27
-5.80562e-27
-2.27468e-27
1.13374e-26
4.67544e-26
1.2386e-25
2.72087e-25
5.26737e-25
9.1221e-25
1.39781e-24
1.804e-24
1.63076e-24
-2.16398e-25
-5.79654e-24
-1.85062e-23
-4.31737e-23
-8.52518e-23
-1.47943e-22
-2.25359e-22
-2.89062e-22
-2.64972e-22
1.40055e-24
7.8951e-22
2.5471e-21
5.90388e-21
1.15991e-20
2.02275e-20
3.16651e-20
4.40036e-20
5.18415e-20
4.3906e-20
2.99927e-22
-1.09705e-19
-3.27392e-19
-6.98467e-19
-1.25602e-18
-1.98609e-18
-2.76919e-18
-3.29417e-18
-2.94797e-18
-6.94618e-19
5.01361e-18
1.62073e-17
3.50992e-17
6.32604e-17
9.99646e-17
1.39564e-16
1.68797e-16
1.64657e-16
8.26029e-17
-1.81084e-16
-8.78167e-16
-2.15337e-15
-3.45995e-15
-2.71601e-15
4.96033e-15
1.59452e-14
1.53329e-14
-1.31581e-14
-5.1399e-14
-4.20843e-14
5.13227e-14
1.49558e-13
8.89868e-14
-1.90138e-13
-4.05219e-13
-1.52926e-13
6.11234e-13
1.05547e-12
2.03869e-13
-1.82303e-12
-2.69018e-12
-1.57622e-13
5.12704e-12
6.85486e-12
-1.89125e-14
-1.36562e-11
-1.80319e-11
-9.13357e-14
3.48815e-11
4.8324e-11
5.65988e-12
-8.59487e-11
-1.31798e-10
-3.73031e-11
1.95598e-10
3.58031e-10
1.83939e-10
-3.95287e-10
-9.46318e-10
-7.14064e-10
6.33561e-10
2.35045e-09
2.40133e-09
-3.59935e-10
-5.15956e-09
-7.38914e-09
-2.84691e-09
9.05856e-09
1.99928e-08
1.67131e-08
-7.91263e-09
-4.46883e-08
-5.98831e-08
-2.42861e-08
6.71567e-08
1.62041e-07
1.5826e-07
-9.20269e-10
-2.94178e-07
-5.19233e-07
-4.14087e-07
1.57427e-07
1.04503e-06
1.61715e-06
1.17298e-06
-6.20504e-07
-3.31859e-06
-5.0886e-06
-3.95927e-06
1.18429e-06
9.44118e-06
1.61564e-05
1.49961e-05
2.35887e-06
-2.1916e-05
-4.85253e-05
-5.74975e-05
-3.58837e-05
2.49418e-05
0.000115531
0.000197036
0.000203925
0.000105221
-0.000126935
-0.000456845
-0.000765197
-0.00084062
-0.000573713
0.000156641
0.00133946
0.00272441
0.00378959
0.003815
0.00249087
-0.000703444
-0.00587321
-0.012494
-0.0192744
-0.0239714
-0.0239078
-0.0178658
-0.00314935
0.0223787
0.0601127
0.11045
0.172691
0.245086
0.32502
0.40931
0.49455
0.577468
0.655224
0.725623
0.787232
0.839384
0.882101
0.915958
0.941919
0.961163
0.974939
0.984448
0.990763
0.994784
0.997228
0.998636
0.999398
0.999777
0.999943
0.999997
1
1
1
1
1
1
1
1
1
1
1
1
1
1
1
1
1
1
1
1
1
1
1
1
1
1
1
1
1
1
1
1
1
0.999999
0.999998
0.999999
1
1
1.00001
1
0.999999
0.999991
0.999984
0.999985
0.999998
1.00002
1.00005
1.00006
1.00004
0.999975
0.999885
0.999803
0.999797
0.999895
1.00013
1.00046
1.00077
1.00084
1.00057
0.999843
0.99866
0.997276
0.996211
0.996187
0.997513
1.00071
1.00587
1.01251
1.01929
1.02396
1.02389
1.01783
1.0031
0.977561
0.939811
0.88946
0.827208
0.754805
0.674868
0.59058
0.505345
0.422436
0.344692
0.274305
0.212709
0.160569
0.117863
0.084015
0.0580621
0.0388241
0.0250524
0.0155464
0.00923398
0.00521433
0.00277103
0.00136308
0.000602104
0.000223367
5.65751e-05
2.99148e-06
1.30665e-16
1.28872e-16
1.26764e-16
1.22861e-16
1.17568e-16
1.11223e-16
1.04127e-16
9.65474e-17
8.8718e-17
8.08379e-17
7.30722e-17
6.55537e-17
5.83849e-17
5.1641e-17
4.53729e-17
3.96105e-17
3.43663e-17
2.96381e-17
2.54123e-17
2.16664e-17
1.83718e-17
1.54953e-17
1.30016e-17
1.08543e-17
9.01727e-18
7.45535e-18
6.13529e-18
5.02606e-18
4.09919e-18
3.32883e-18
2.6919e-18
2.16793e-18
1.73897e-18
1.38946e-18
1.10598e-18
8.77076e-19
6.93031e-19
5.4567e-19
4.2816e-19
3.34821e-19
2.60965e-19
2.02742e-19
1.57009e-19
1.21214e-19
9.32928e-20
7.15875e-20
5.47694e-20
4.17801e-20
3.17796e-20
2.4104e-20
1.82308e-20
1.37503e-20
1.03422e-20
7.75757e-21
5.80298e-21
4.32912e-21
3.22089e-21
2.38992e-21
1.7686e-21
1.30531e-21
9.60823e-22
7.05369e-22
5.16458e-22
3.77139e-22
2.74673e-22
1.99516e-22
1.4454e-22
1.04436e-22
7.52591e-23
5.409e-23
3.87725e-23
2.7719e-23
1.97643e-23
1.4055e-23
9.96849e-24
7.05139e-24
4.97471e-24
3.50033e-24
2.45639e-24
1.71923e-24
1.2001e-24
8.35507e-25
5.8014e-25
4.01758e-25
2.7749e-25
1.91153e-25
1.31331e-25
8.99926e-26
6.15037e-26
4.19229e-26
2.85009e-26
1.93253e-26
1.30693e-26
8.81539e-27
5.93054e-27
3.97935e-27
2.66316e-27
1.77768e-27
1.18353e-27
7.85924e-28
5.20543e-28
3.43883e-28
2.26593e-28
1.48924e-28
9.76263e-29
6.38348e-29
4.16331e-29
2.70839e-29
1.75744e-29
1.13749e-29
7.34371e-30
4.72918e-30
3.03783e-30
1.94647e-30
1.24407e-30
7.93152e-31
5.04411e-31
3.19987e-31
2.0249e-31
1.2782e-31
8.04866e-32
5.05567e-32
3.16788e-32
1.98013e-32
1.23469e-32
7.6801e-33
4.76563e-33
2.94999e-33
1.82168e-33
1.12222e-33
6.89667e-34
4.22824e-34
2.58608e-34
1.57794e-34
9.60516e-35
5.83297e-35
3.53384e-35
2.1359e-35
1.28793e-35
7.7479e-36
4.65008e-36
2.78434e-36
1.66331e-36
9.91325e-37
5.89458e-37
3.49692e-37
2.06975e-37
1.22223e-37
7.20097e-38
4.23289e-38
2.48251e-38
1.45264e-38
8.48084e-39
4.94011e-39
2.87113e-39
1.66491e-39
9.63284e-40
5.56088e-40
3.20303e-40
1.84082e-40
1.05558e-40
6.03965e-41
3.44801e-41
1.96411e-41
1.11637e-41
6.33129e-42
3.58282e-42
2.02306e-42
1.13984e-42
6.40815e-43
3.59483e-43
2.01225e-43
1.12395e-43
6.26436e-44
3.48394e-44
1.93345e-44
1.07069e-44
5.91652e-45
3.26245e-45
1.79514e-45
9.85665e-46
5.4006e-46
2.95282e-46
1.61108e-46
8.7717e-47
4.76584e-47
2.58397e-47
1.39806e-47
7.54853e-48
4.0672e-48
2.18689e-48
1.17344e-48
6.28346e-49
3.3577e-49
1.79057e-49
9.52912e-50
5.06087e-50
2.68232e-50
1.41877e-50
7.48914e-51
3.94522e-51
2.07411e-51
1.08822e-51
5.69807e-52
2.9776e-52
1.55287e-52
8.0823e-53
4.19825e-53
2.1764e-53
1.12602e-53
5.81423e-54
2.99627e-54
1.54103e-54
7.91024e-55
)
;

boundaryField
{
    sides
    {
        type            zeroGradient;
    }
    empty
    {
        type            empty;
    }
}


// ************************************************************************* //
