/*--------------------------------*- C++ -*----------------------------------*\
| =========                 |                                                 |
| \\      /  F ield         | OpenFOAM: The Open Source CFD Toolbox           |
|  \\    /   O peration     | Version:  2312                                  |
|   \\  /    A nd           | Website:  www.openfoam.com                      |
|    \\/     M anipulation  |                                                 |
\*---------------------------------------------------------------------------*/
FoamFile
{
    version     2.0;
    format      ascii;
    arch        "LSB;label=32;scalar=64";
    class       volScalarField;
    location    "1.7";
    object      T;
}
// * * * * * * * * * * * * * * * * * * * * * * * * * * * * * * * * * * * * * //

dimensions      [0 0 0 1 0 0 0];

internalField   nonuniform List<scalar> 
1000
(
0
0
0
0
0
0
0
0
0
0
0
0
0
0
0
0
0
0
0
0
0
0
0
0
0
0
0
0
0
0
0
0
0
0
0
0
0
0
0
0
0
0
0
0
0
0
0
0
0
0
0
0
0
0
0
0
0
0
0
0
0
0
0
0
0
0
0
0
0
0
0
0
0
0
0
0
0
0
0
0
0
0
0
0
0
0
0
0
0
0
0
0
0
0
0
0
0
0
0
0
0
0
0
0
0
0
0
0
0
0
0
0
0
0
0
0
0
0
0
0
0
0
0
0
0
0
0
0
0
0
0
0
0
0
0
0
0
0
0
0
0
0
0
0
0
0
0
0
0
0
0
0
0
0
0
0
0
0
0
0
0
0
0
0
0
0
0
0
0
0
0
0
0
0
0
0
0
0
0
0
0
0
0
0
0
0
0
0
0
0
0
0
0
0
0
0
0
0
0
0
0
0
0
0
0
0
0
0
0
0
0
0
0
0
0
0
0
0
0
0
0
0
0
0
0
0
0
0
0
0
0
0
0
0
0
0
0
0
0
0
0
0
0
0
0
0
0
0
0
0
0
0
0
0
0
0
0
0
0
0
0
0
0
0
0
0
0
0
0
0
0
0
0
0
0
0
0
0
0
0
0
0
0
0
0
0
0
0
0
0
0
0
0
0
0
0
0
0
0
0
0
0
0
0
0
0
0
0
0
0
0
0
0
0
0
0
0
0
0
0
0
0
0
0
0
0
0
0
0
0
0
0
0
0
0
0
0
0
0
0
0
0
0
0
0
0
0
0
0
0
0
0
0
0
0
0
0
0
0
0
0
0
0
0
0
0
0
0
0
0
0
0
0
0
0
0
0
0
0
0
0
0
0
0
0
0
0
0
0
0
0
0
0
0
0
0
0
0
0
0
0
0
0
0
1.41857e-79
-9.52281e-64
5.72207e-56
-3.36779e-52
-4.14011e-51
4.81974e-49
2.4504e-47
6.36487e-46
1.1482e-44
1.601e-43
1.82353e-42
1.75408e-41
1.45555e-40
1.05589e-39
6.74378e-39
3.79625e-38
1.87096e-37
7.90703e-37
2.70596e-36
6.04863e-36
-5.53577e-36
-1.67693e-34
-1.27077e-33
-7.20846e-33
-3.52366e-32
-1.56189e-31
-6.43285e-31
-2.4916e-30
-9.11744e-30
-3.15134e-29
-1.02568e-28
-3.12979e-28
-8.91462e-28
-2.36313e-27
-5.83537e-27
-1.35553e-26
-3.04531e-26
-6.97842e-26
-1.73568e-25
-4.76798e-25
-1.37503e-24
-3.87053e-24
-1.00526e-23
-2.30949e-23
-4.45657e-23
-6.38034e-23
-3.09177e-23
1.91349e-22
8.71799e-22
2.33381e-21
4.44676e-21
5.1069e-21
-2.96047e-21
-3.69018e-20
-1.26528e-19
-3.04272e-19
-5.58845e-19
-7.16858e-19
-2.22527e-19
2.15126e-18
8.42543e-18
2.07434e-17
3.873e-17
5.3326e-17
3.66153e-17
-8.82427e-17
-4.93258e-16
-1.16673e-15
-1.05525e-15
3.03414e-15
7.49597e-15
-1.08433e-15
-2.09531e-14
-1.09758e-14
4.52139e-14
4.71218e-14
-7.79737e-14
-1.41489e-13
1.00759e-13
3.56783e-13
-3.14417e-14
-7.76084e-13
-3.81902e-13
1.50323e-12
1.63408e-12
-2.10109e-12
-4.82388e-12
1.24893e-12
1.09377e-11
5.06023e-12
-1.98247e-11
-2.43931e-11
2.06645e-11
6.83069e-11
1.32853e-11
-1.32487e-10
-1.35033e-10
1.40109e-10
4.07772e-10
1.00835e-10
-7.68296e-10
-8.97451e-10
5.81297e-10
2.44114e-09
1.37563e-09
-3.4515e-09
-6.41985e-09
-3.73645e-10
1.27912e-08
1.47838e-08
-6.95172e-09
-3.83654e-08
-3.26869e-08
3.3796e-08
1.06909e-07
7.26155e-08
-1.13944e-07
-2.89097e-07
-1.75273e-07
3.14257e-07
7.72726e-07
5.04982e-07
-7.507e-07
-2.04853e-06
-1.62812e-06
1.34638e-06
5.27885e-06
5.43104e-06
-8.87519e-07
-1.18933e-05
-1.74007e-05
-7.22853e-06
2.01581e-05
4.78689e-05
4.45147e-05
-7.13352e-06
-9.6695e-05
-0.000157855
-0.000113417
7.21223e-05
0.000347232
0.000513831
0.00037461
-0.00017803
-0.00104044
-0.0017383
-0.00164119
-0.000376691
0.00216015
0.00525507
0.00718875
0.00629265
0.00140614
-0.00797332
-0.0205341
-0.0324788
-0.0376403
-0.031801
-0.0106141
0.0300976
0.0919885
0.173785
0.271476
0.379024
0.489427
0.595865
0.692679
0.775991
0.84392
0.896414
0.93483
0.961397
0.978692
0.989223
0.995158
0.998196
0.99955
0.999979
1
1
1
1
1
1
1
1
1
1
1
1
1
1
1
1
1
1
1
1
1
1
1
1
1
1
1
1
1
1
1
1
1
1
1
1
1
1
1
1
1
1
0.999999
0.999999
1
1
1
0.999999
0.999995
0.999995
1
1.00001
1.00002
1.00001
0.99998
0.999952
0.999955
1.00001
1.0001
1.00016
1.00011
0.999929
0.999654
0.999487
0.999627
1.00018
1.00104
1.00174
1.00164
1.00037
0.997838
0.994746
0.992815
0.993715
0.998603
1.00798
1.02054
1.03247
1.03762
1.03176
1.01055
0.969809
0.907893
0.826078
0.728378
0.620832
0.510439
0.404018
0.307225
0.223934
0.156026
0.103549
0.0651461
0.0385887
0.0213
0.0107727
0.00484015
0.00180384
0.000450011
2.14171e-05
1.53162e-09
9.73368e-11
6.18028e-12
3.89555e-13
2.74172e-14
6.51106e-16
3.64717e-16
3.21085e-16
2.59136e-16
2.02245e-16
1.57746e-16
1.24092e-16
9.81493e-17
7.76501e-17
6.12519e-17
4.81196e-17
3.76462e-17
2.93386e-17
2.2782e-17
1.76297e-17
1.35963e-17
1.04498e-17
8.00347e-18
6.10789e-18
4.64416e-18
3.51792e-18
2.65454e-18
1.99517e-18
1.49358e-18
1.11353e-18
8.26764e-19
6.11279e-19
4.50045e-19
3.29923e-19
2.4082e-19
1.75017e-19
1.26637e-19
9.12266e-20
6.54254e-20
4.67115e-20
3.32004e-20
2.34906e-20
1.65449e-20
1.15997e-20
8.09539e-21
5.62376e-21
3.88875e-21
2.67661e-21
1.83379e-21
1.25056e-21
8.48883e-22
5.73564e-22
3.85754e-22
2.58248e-22
1.72094e-22
1.14158e-22
7.53801e-23
4.95486e-23
3.24216e-23
2.11191e-23
1.3695e-23
8.84106e-24
5.68211e-24
3.6357e-24
2.31605e-24
1.46893e-24
9.27585e-25
5.832e-25
3.6509e-25
2.27569e-25
1.41242e-25
8.72891e-26
5.37172e-26
3.29178e-26
2.00873e-26
1.22066e-26
7.38682e-27
4.45162e-27
2.67168e-27
1.59685e-27
9.50526e-28
5.63499e-28
3.32704e-28
1.95643e-28
1.14583e-28
6.68398e-29
3.8834e-29
2.24729e-29
1.29533e-29
7.43683e-30
4.25288e-30
2.42256e-30
1.37457e-30
7.76903e-31
4.37402e-31
2.4531e-31
1.37049e-31
7.62725e-32
4.22862e-32
2.33546e-32
1.28498e-32
7.04329e-33
3.84606e-33
2.0923e-33
1.13398e-33
6.123e-34
3.29389e-34
1.7654e-34
9.427e-35
5.0154e-35
2.65856e-35
1.4041e-35
7.38876e-36
3.87408e-36
2.02393e-36
1.05356e-36
5.4647e-37
2.82436e-37
1.45455e-37
7.46438e-38
3.81703e-38
1.94503e-38
9.87655e-39
4.99764e-39
2.52007e-39
1.26635e-39
6.34154e-40
3.16475e-40
1.57396e-40
7.80128e-41
3.85353e-41
1.89705e-41
9.30745e-42
4.55115e-42
2.21797e-42
1.07731e-42
5.21531e-43
2.5164e-43
1.21017e-43
5.80073e-44
2.77138e-44
1.31975e-44
6.26437e-45
2.96384e-45
1.39776e-45
6.5707e-46
3.07894e-46
1.43815e-46
6.69622e-47
3.10799e-47
1.438e-47
6.63246e-48
3.04952e-48
1.39776e-48
6.38687e-49
2.90936e-49
1.3212e-49
5.98148e-50
2.69972e-50
1.2148e-50
5.44973e-51
2.43742e-51
1.08687e-51
4.83195e-52
2.14175e-52
9.46499e-53
4.17046e-53
1.83216e-53
8.02536e-54
3.50503e-54
1.52633e-54
6.62737e-55
2.86929e-55
1.23866e-55
5.33187e-56
2.28855e-56
9.79492e-57
4.18027e-57
1.779e-57
7.54952e-58
3.19477e-58
1.34816e-58
5.67323e-59
2.38072e-59
9.96282e-60
4.15771e-60
1.73034e-60
7.1815e-61
2.97243e-61
1.22694e-61
5.05077e-62
2.07356e-62
8.48995e-63
3.46678e-63
1.41184e-63
5.73439e-64
2.32292e-64
9.38496e-65
3.78167e-65
1.51983e-65
6.09208e-66
2.43559e-66
9.7121e-67
3.86275e-67
1.53235e-67
6.06319e-68
2.39293e-68
9.41999e-69
3.69882e-69
1.44869e-69
5.65962e-70
2.20549e-70
8.57298e-71
3.32408e-71
1.28566e-71
4.96025e-72
1.90899e-72
7.32879e-73
2.80667e-73
1.07222e-73
4.08618e-74
1.55343e-74
5.89132e-75
2.22886e-75
8.41209e-76
3.16725e-76
1.18965e-76
4.45781e-77
1.66644e-77
6.21479e-78
2.31227e-78
8.58274e-79
3.17829e-79
1.17421e-79
4.32797e-80
1.59152e-80
5.83896e-81
2.13725e-81
7.80502e-82
2.84378e-82
1.03377e-82
3.74942e-83
1.3568e-83
4.89873e-84
1.7647e-84
6.34278e-85
2.27465e-85
8.13913e-86
2.90585e-86
1.03515e-86
3.67935e-87
1.30491e-87
4.61776e-88
1.63054e-88
5.74486e-89
2.01968e-89
7.08499e-90
2.48002e-90
8.66231e-91
3.01909e-91
1.04999e-91
3.6439e-92
1.26189e-92
4.36064e-93
1.50369e-93
5.17426e-94
1.77674e-94
6.08815e-95
2.08179e-95
7.10366e-96
2.41893e-96
8.2198e-97
2.78741e-97
9.43288e-98
3.18562e-98
1.07363e-98
3.61097e-99
1.21202e-99
4.05986e-100
1.35717e-100
4.5277e-101
1.50746e-101
5.0089e-102
1.661e-102
5.49703e-103
1.81561e-103
5.98485e-104
1.96891e-104
6.46457e-105
2.11836e-105
6.92798e-106
2.26133e-106
7.36672e-107
2.39518e-107
7.77251e-108
2.51735e-108
8.13744e-109
2.62541e-109
8.45421e-110
2.71718e-110
8.71637e-111
2.79079e-111
8.91856e-112
2.84473e-112
9.05668e-113
2.87793e-113
9.12803e-114
2.88976e-114
9.13139e-115
2.88008e-115
9.06706e-116
2.84922e-116
8.93685e-117
2.79798e-117
8.74395e-118
2.72758e-118
8.49287e-119
2.63963e-119
)
;

boundaryField
{
    sides
    {
        type            zeroGradient;
    }
    empty
    {
        type            empty;
    }
}


// ************************************************************************* //
