/*--------------------------------*- C++ -*----------------------------------*\
| =========                 |                                                 |
| \\      /  F ield         | OpenFOAM: The Open Source CFD Toolbox           |
|  \\    /   O peration     | Version:  2312                                  |
|   \\  /    A nd           | Website:  www.openfoam.com                      |
|    \\/     M anipulation  |                                                 |
\*---------------------------------------------------------------------------*/
FoamFile
{
    version     2.0;
    format      ascii;
    arch        "LSB;label=32;scalar=64";
    class       volScalarField;
    location    "3.2";
    object      T;
}
// * * * * * * * * * * * * * * * * * * * * * * * * * * * * * * * * * * * * * //

dimensions      [0 0 0 1 0 0 0];

internalField   nonuniform List<scalar> 
1000
(
3.50151e-317
-1.74384e-316
1.6209e-315
-1.45785e-314
1.30836e-313
-1.17064e-312
1.04426e-311
-9.28704e-311
8.23426e-310
-7.27859e-309
6.4142e-308
-5.63515e-307
4.93552e-306
-4.30945e-305
3.75117e-304
-3.2551e-303
2.81587e-302
-2.42831e-301
2.08756e-300
-1.789e-299
1.52832e-298
-1.30151e-297
1.10486e-296
-9.34944e-296
7.88646e-295
-6.63119e-294
5.55788e-293
-4.64335e-292
3.86682e-291
-3.20975e-290
2.65571e-289
-2.19016e-288
1.80034e-287
-1.47507e-286
1.2046e-285
-9.80486e-285
7.95436e-284
-6.43175e-283
5.18332e-282
-4.16329e-281
3.33282e-280
-2.65906e-279
2.11436e-278
-1.67557e-277
1.32334e-276
-1.04161e-275
8.17054e-275
-6.38718e-274
4.97593e-273
-3.86314e-272
2.98884e-271
-2.30438e-270
1.77049e-269
-1.35553e-268
1.0342e-267
-7.86257e-267
5.95648e-266
-4.49648e-265
3.38227e-264
-2.53508e-263
1.89328e-262
-1.40888e-261
1.04463e-260
-7.71748e-260
5.68075e-259
-4.16627e-258
3.04435e-257
-2.21636e-256
1.60761e-255
-1.16173e-254
8.364e-254
-5.99923e-253
4.28691e-252
-3.05179e-251
2.16431e-250
-1.52908e-249
1.07618e-248
-7.54522e-248
5.26971e-247
-3.66625e-246
2.5408e-245
-1.75398e-244
1.20608e-243
-8.26078e-243
5.63572e-242
-3.8296e-241
2.59195e-240
-1.74728e-239
1.17314e-238
-7.84482e-238
5.2246e-237
-3.4654e-236
2.28915e-235
-1.50594e-234
9.86615e-234
-6.43698e-233
4.18219e-232
-2.70585e-231
1.74331e-230
-1.11842e-229
7.14477e-229
-4.54478e-228
2.87853e-227
-1.81532e-226
1.13985e-225
-7.12604e-225
4.4355e-224
-2.74866e-223
1.6958e-222
-1.04157e-221
6.36883e-221
-3.87679e-220
2.34918e-219
-1.41704e-218
8.50854e-218
-5.08544e-217
3.02544e-216
-1.79152e-215
1.0559e-214
-6.19399e-214
3.61625e-213
-2.10123e-212
1.21507e-211
-6.99246e-211
4.00449e-210
-2.28212e-209
1.29416e-208
-7.30277e-208
4.10033e-207
-2.2907e-206
1.27327e-205
-7.04144e-205
3.87415e-204
-2.12055e-203
1.15469e-202
-6.25467e-202
3.37019e-201
-1.80633e-200
9.62977e-200
-5.10613e-199
2.69283e-198
-1.41236e-197
7.36695e-197
-3.82131e-196
1.97107e-195
-1.01096e-194
5.15577e-194
-2.61429e-193
1.31794e-192
-6.60537e-192
3.29105e-191
-1.63e-190
8.02468e-190
-3.92676e-189
1.90977e-188
-9.23089e-188
4.43398e-187
-2.11643e-186
1.0038e-185
-4.73038e-185
2.21471e-184
-1.03011e-183
4.7595e-183
-2.18433e-182
9.95683e-182
-4.50749e-181
2.02639e-180
-9.04582e-180
4.00933e-179
-1.76423e-178
7.70644e-178
-3.34139e-177
1.4379e-176
-6.1406e-176
2.60211e-175
-1.09401e-174
4.56298e-174
-1.88776e-173
7.74567e-173
-3.15155e-172
1.27139e-171
-5.08455e-171
2.01547e-170
-7.91724e-170
3.08153e-169
-1.18814e-168
4.53719e-168
-1.71566e-167
6.42238e-167
-2.37942e-166
8.72249e-166
-3.16283e-165
1.13406e-164
-4.01956e-164
1.40778e-163
-4.86997e-163
1.66325e-162
-5.60538e-162
1.86307e-161
-6.1031e-161
1.96906e-160
-6.25169e-160
1.95141e-159
-5.98177e-159
1.79829e-158
-5.29346e-158
1.52266e-157
-4.26923e-157
1.16291e-156
-3.06368e-156
7.75647e-156
-1.86889e-155
4.21671e-155
-8.63985e-155
1.49517e-154
-1.6633e-154
-1.74335e-154
1.96866e-153
-8.50331e-153
2.84627e-152
-8.19883e-152
2.0824e-151
-4.6065e-151
8.32416e-151
-9.30934e-151
-1.07202e-150
1.12248e-149
-4.58636e-149
1.41353e-148
-3.58731e-148
7.39511e-148
-1.06866e-147
7.50258e-149
6.65715e-147
-3.0889e-146
9.68704e-146
-2.36509e-145
4.33017e-145
-3.99488e-145
-1.03637e-144
7.19698e-144
-2.50623e-143
6.34986e-143
-1.15432e-142
9.16379e-143
3.49149e-142
-2.09707e-141
6.74536e-141
-1.52876e-140
2.15367e-140
7.22941e-141
-1.68687e-139
6.59588e-139
-1.66585e-138
2.68089e-138
-4.02945e-139
-1.54632e-137
6.56584e-137
-1.68008e-136
2.60667e-136
2.06111e-137
-1.73706e-135
6.77456e-135
-1.57875e-134
1.92427e-134
2.44696e-134
-2.16682e-133
6.84493e-133
-1.27092e-132
5.61415e-133
5.84636e-132
-2.56674e-131
6.00436e-131
-6.42413e-131
-1.36145e-130
9.05642e-130
-2.48705e-129
3.46744e-129
2.84923e-129
-3.1877e-128
9.71083e-128
-1.50006e-127
-6.7556e-128
1.16733e-126
-3.69023e-126
5.7035e-126
2.91823e-126
-4.52151e-125
1.37441e-124
-1.91718e-124
-1.92432e-124
1.82464e-123
-4.94306e-123
5.32394e-123
1.25478e-122
-7.38028e-122
1.651e-121
-8.78544e-122
-7.19592e-121
2.84457e-120
-4.71478e-120
-2.27724e-120
3.56959e-119
-9.7985e-119
8.93357e-119
3.14553e-118
-1.50335e-117
2.69286e-117
8.71348e-118
-1.87737e-116
5.08872e-116
-3.87224e-116
-1.89946e-115
7.87295e-115
-1.15699e-114
-1.34661e-114
1.0742e-113
-2.25891e-113
1.44378e-115
1.33432e-112
-3.72754e-112
2.42847e-112
1.53319e-111
-5.61276e-111
6.16611e-111
1.64394e-110
-8.00605e-110
1.15486e-109
1.6567e-109
-1.10768e-108
1.89755e-108
1.59378e-108
-1.51214e-107
2.89393e-107
1.53597e-107
-2.0627e-106
4.1995e-106
1.66807e-106
-2.83453e-105
5.86271e-105
2.35333e-105
-3.93618e-104
7.89146e-104
4.2456e-104
-5.51096e-103
1.01844e-102
8.438e-103
-7.72307e-102
1.2408e-101
1.6619e-101
-1.071e-100
1.38035e-100
3.11473e-100
-1.44744e-99
1.29301e-99
5.48542e-99
-1.86829e-98
7.41154e-99
9.02428e-98
-2.23561e-97
-6.12901e-98
1.37641e-96
-2.34913e-96
-3.15802e-96
1.91934e-95
-1.87907e-95
-7.17585e-95
2.3808e-94
-3.88123e-95
-1.252e-93
2.4701e-93
2.53619e-93
-1.81366e-92
1.75952e-92
6.97549e-92
-2.15838e-91
-2.02126e-92
1.21985e-90
-1.89733e-90
-3.59861e-90
1.61704e-89
-6.01862e-90
-7.88165e-89
1.54982e-88
1.91749e-88
-1.13231e-87
6.49219e-88
5.18129e-87
-1.10494e-86
-1.21504e-86
7.68507e-86
-4.18584e-86
-3.56011e-85
7.08745e-85
9.61503e-85
-5.06892e-84
1.45119e-84
2.5233e-83
-3.96304e-83
-8.51679e-83
3.15315e-82
7.21743e-83
-1.75918e-81
1.67359e-81
7.38533e-81
-1.71964e-80
-1.98482e-80
1.12309e-79
-1.62187e-80
-5.72951e-79
6.79001e-79
2.31047e-78
-5.8599e-78
-6.32502e-78
3.66444e-77
-1.59847e-78
-1.8909e-76
1.79437e-76
8.21406e-76
-1.64167e-75
-2.85283e-75
1.08427e-74
5.90537e-75
-6.04851e-74
1.648e-74
2.97907e-73
-3.03969e-73
-1.30566e-72
2.46624e-72
4.97935e-72
-1.58583e-71
-1.51059e-71
8.99595e-71
2.19771e-71
-4.68251e-70
1.55787e-70
2.2768e-69
-1.9982e-69
-1.04248e-68
1.52064e-68
4.50137e-68
-9.68019e-68
-1.82355e-67
5.60157e-67
6.82436e-67
-3.0501e-66
-2.26991e-66
1.59192e-65
5.97781e-66
-8.0568e-65
-5.82419e-66
3.98645e-64
-7.3945e-65
-1.94053e-63
7.9124e-64
9.34106e-63
-5.59046e-63
-4.46588e-62
3.38492e-62
2.12845e-61
-1.88156e-61
-1.01437e-60
9.87224e-61
4.84537e-60
-4.95247e-60
-2.32329e-59
2.38822e-59
1.11885e-58
-1.10739e-58
-5.40947e-58
4.91454e-58
2.6221e-57
-2.06332e-57
-1.27139e-56
7.99255e-57
6.1479e-56
-2.6896e-56
-2.95379e-55
6.3809e-56
1.40386e-54
4.96294e-56
-6.56597e-54
-2.10003e-54
3.00286e-53
1.94038e-53
-1.33183e-52
-1.37521e-52
5.66205e-52
8.58137e-52
-2.26508e-51
-4.92476e-51
8.23861e-51
2.64408e-50
-2.51e-50
-1.33561e-49
4.58829e-50
6.33775e-49
1.40086e-49
-2.80107e-48
-2.27688e-48
1.13102e-47
1.73169e-47
-3.9965e-47
-1.04208e-46
1.09403e-46
5.4312e-46
-1.0483e-46
-2.50334e-45
-1.39467e-45
1.00826e-44
1.40497e-44
-3.35251e-44
-8.94652e-44
7.37352e-44
4.57e-43
7.12945e-44
-1.9439e-42
-2.0633e-42
6.60847e-42
1.51881e-41
-1.43206e-41
-7.99249e-41
-1.67699e-41
3.29242e-40
4.08883e-40
-9.95016e-40
-2.81067e-39
1.2562e-39
1.34162e-38
9.49032e-39
-4.6584e-38
-9.36258e-38
8.94463e-38
5.02299e-37
2.20956e-37
-1.85373e-36
-3.20686e-36
3.80302e-36
1.82537e-35
7.42083e-36
-6.66387e-35
-1.18415e-34
1.19693e-34
6.52605e-34
3.94333e-34
-2.15175e-33
-4.63258e-33
2.29726e-33
2.22976e-32
2.28853e-32
-5.75512e-32
-1.78545e-31
-3.35846e-32
6.73344e-31
1.16763e-30
-9.09846e-31
-6.12752e-30
-6.04071e-30
1.49023e-29
4.82367e-29
1.93003e-29
-1.6013e-28
-3.43374e-28
5.63996e-29
1.45225e-27
2.26937e-27
-1.77702e-27
-1.20051e-26
-1.42439e-26
2.14488e-26
9.39932e-26
8.73461e-26
-2.03862e-25
-7.13898e-25
-5.45877e-25
1.715e-24
5.34409e-24
3.6741e-24
-1.32686e-23
-3.97798e-23
-2.77889e-23
9.53209e-23
2.94863e-22
2.34849e-22
-6.28705e-22
-2.16229e-21
-2.11145e-21
3.64973e-21
1.5457e-20
1.91063e-20
-1.63363e-20
-1.05121e-19
-1.66884e-19
2.11365e-20
6.53538e-19
1.36404e-18
6.65137e-19
-3.43062e-18
-1.01176e-17
-1.06572e-17
1.17945e-17
6.50692e-17
1.08831e-16
2.35833e-17
-3.28338e-16
-8.58773e-16
-8.92972e-16
8.59228e-16
5.17719e-15
9.58055e-15
5.50556e-15
-1.94538e-14
-6.69883e-14
-1.00183e-13
-2.26768e-14
2.82838e-13
7.93553e-13
1.07088e-12
8.42839e-14
-3.36243e-12
-9.00988e-12
-1.23743e-11
-2.73202e-12
3.35078e-11
9.79882e-11
1.52457e-10
9.11273e-11
-2.47342e-10
-9.65955e-10
-1.84545e-09
-1.98273e-09
3.95913e-10
7.38165e-09
1.93624e-08
3.11739e-08
2.74532e-08
-1.91003e-08
-1.39454e-07
-3.40816e-07
-5.5416e-07
-5.64576e-07
3.94491e-08
1.82038e-06
5.23075e-06
1.00058e-05
1.41413e-05
1.25823e-05
-3.8822e-06
-4.84709e-05
-0.0001353
-0.000271
-0.000438477
-0.000570629
-0.000513193
2.1646e-05
0.0015058
0.00464105
0.0103877
0.0199623
0.0347908
0.0564098
0.0863148
0.125767
0.175579
0.235916
0.306139
0.384737
0.469365
0.556999
0.644194
0.727418
0.803417
0.869544
0.924023
0.966082
0.995964
1.0148
1.0244
1.02694
1.02468
1.01973
1.0138
1.00815
1.00355
1.00031
0.99842
0.997651
0.997669
0.998133
0.998762
0.999357
0.999813
1.0001
1.00023
1.00024
1.00019
1.00012
1.00006
1.00001
0.999984
0.999974
0.999977
0.999984
0.999992
0.999998
1
1
1
1
1
1
1
1
1
1
1
1
1
1
1
1
1
1
1
1
1
1
1
1
1
1
1
1
1
1
1
1
1
1
1
1
1
0.999998
0.999995
0.99999
0.999986
0.999987
1
1.00005
1.00014
1.00027
1.00044
1.00057
1.00051
0.999978
0.998494
0.995359
0.989612
0.980038
0.965209
0.94359
0.913685
0.874233
0.824421
0.764084
0.693861
0.615263
0.530635
0.443001
0.355806
0.272582
0.196583
0.130456
0.0759771
0.0339182
0.00403585
-0.0148041
-0.0244018
-0.026939
-0.0246835
-0.0197284
-0.0137999
-0.0081519
-0.00354662
-0.000307478
0.00158033
0.00234895
0.00233129
0.00186669
0.00123824
0.000642529
0.000186593
-9.68003e-05
-0.000225129
-0.000241367
-0.000193899
-0.000123553
-5.77369e-05
-1.01088e-05
1.64296e-05
2.55147e-05
2.34058e-05
1.61925e-05
8.32356e-06
2.23624e-06
-1.31648e-06
-2.64767e-06
-2.52702e-06
-1.7411e-06
-8.63724e-07
-1.99504e-07
1.67413e-07
2.85058e-07
2.51104e-07
1.57632e-07
6.59734e-08
3.99625e-09
-2.483e-08
-2.94906e-08
-2.1854e-08
-1.12771e-08
-2.91729e-09
1.6694e-09
3.06289e-09
2.60067e-09
1.50124e-09
5.12633e-10
-8.18309e-11
-2.99623e-10
-2.81825e-10
-1.72335e-10
-6.46448e-11
2.88847e-12
2.90818e-11
2.87235e-11
1.7761e-11
6.66979e-12
-2.58424e-13
-2.87999e-12
-2.78838e-12
-1.66534e-12
-5.77564e-13
6.8817e-14
2.88643e-13
2.56779e-13
1.41343e-13
4.06316e-14
-1.36501e-14
-2.82867e-14
-2.20547e-14
-1.06128e-14
-1.98812e-15
1.99598e-15
2.60317e-15
1.71996e-15
6.69487e-16
6.53803e-18
-2.32648e-16
-2.16917e-16
-1.17093e-16
-3.08702e-17
1.28418e-17
2.2402e-17
1.5793e-17
6.48498e-18
3.89318e-19
-1.86951e-18
-1.79512e-18
-9.56774e-19
-2.38746e-19
1.11434e-19
1.77377e-19
1.17611e-19
4.34034e-20
-1.23754e-21
-1.5325e-20
-1.27588e-20
-5.92717e-21
-9.15653e-22
1.13621e-21
1.25592e-21
6.9509e-22
1.83447e-22
-6.71673e-23
-1.14021e-22
-7.35932e-23
-2.51733e-23
2.21755e-24
9.65341e-24
7.22065e-24
2.9154e-24
1.52388e-25
-7.68859e-25
-6.67512e-25
-3.03846e-25
-4.18393e-26
5.80972e-26
5.8844e-26
2.93554e-26
5.70672e-27
-4.20739e-27
-4.99354e-27
-2.67344e-27
-6.2304e-28
2.96179e-28
4.11075e-28
2.31934e-28
5.99805e-29
-2.06796e-29
-3.30311e-29
-1.93001e-29
-5.28011e-30
1.46944e-30
2.60259e-30
1.54727e-30
4.32094e-31
-1.08937e-31
-2.01644e-31
-1.19804e-31
-3.31076e-32
8.52821e-33
1.53767e-32
8.96725e-33
2.37782e-33
-6.9938e-34
-1.15306e-33
-6.48452e-34
-1.59355e-34
5.87455e-35
8.48191e-35
4.52138e-35
9.84437e-36
-4.92995e-36
-6.09849e-36
-3.02927e-36
-5.45679e-37
4.05344e-37
4.26692e-37
1.94003e-37
2.53907e-38
-3.22334e-38
-2.89063e-38
-1.17847e-38
-7.74993e-40
2.45935e-39
1.88555e-39
6.7094e-40
-1.59964e-41
-1.79123e-40
-1.17675e-40
-3.50854e-41
5.52326e-42
1.24066e-41
6.97197e-42
1.61903e-42
-6.28e-43
-8.14272e-43
-3.88077e-43
-5.93726e-44
5.47489e-44
5.04273e-44
1.9975e-44
9.96423e-46
-4.12729e-45
-2.92968e-45
-9.24413e-46
9.47695e-47
2.79823e-46
1.58278e-46
3.61516e-47
-1.38623e-47
-1.7321e-47
-7.83679e-48
-9.71999e-49
1.1963e-48
9.82683e-49
3.4606e-49
-7.21274e-51
-8.37081e-50
-5.08836e-50
-1.28112e-50
3.54095e-51
5.10251e-51
2.37164e-51
3.22533e-52
-3.32331e-52
-2.7705e-52
-9.63477e-53
2.46172e-54
2.28641e-53
1.34185e-53
3.1347e-54
-1.04442e-54
-1.32028e-54
-5.70212e-55
-5.62497e-56
9.00848e-56
6.63169e-56
2.01711e-56
-3.50928e-57
)
;

boundaryField
{
    sides
    {
        type            zeroGradient;
    }
    empty
    {
        type            empty;
    }
}


// ************************************************************************* //
