/*--------------------------------*- C++ -*----------------------------------*\
| =========                 |                                                 |
| \\      /  F ield         | OpenFOAM: The Open Source CFD Toolbox           |
|  \\    /   O peration     | Version:  2312                                  |
|   \\  /    A nd           | Website:  www.openfoam.com                      |
|    \\/     M anipulation  |                                                 |
\*---------------------------------------------------------------------------*/
FoamFile
{
    version     2.0;
    format      ascii;
    arch        "LSB;label=32;scalar=64";
    class       volScalarField;
    location    "3.8";
    object      T;
}
// * * * * * * * * * * * * * * * * * * * * * * * * * * * * * * * * * * * * * //

dimensions      [0 0 0 1 0 0 0];

internalField   nonuniform List<scalar> 
1000
(
2.56981e-07
2.57509e-07
2.58962e-07
2.61345e-07
2.64665e-07
2.68933e-07
2.74162e-07
2.80367e-07
2.87567e-07
2.95786e-07
3.05047e-07
3.1538e-07
3.26815e-07
3.39388e-07
3.53136e-07
3.68102e-07
3.84331e-07
4.01871e-07
4.20775e-07
4.41101e-07
4.62909e-07
4.86263e-07
5.11234e-07
5.37894e-07
5.66324e-07
5.96607e-07
6.2883e-07
6.63089e-07
6.99483e-07
7.38117e-07
7.79103e-07
8.22559e-07
8.68609e-07
9.17384e-07
9.69022e-07
1.02367e-06
1.08148e-06
1.14262e-06
1.20725e-06
1.27555e-06
1.34772e-06
1.42396e-06
1.50446e-06
1.58945e-06
1.67916e-06
1.77383e-06
1.87371e-06
1.97908e-06
2.09021e-06
2.20739e-06
2.33094e-06
2.46118e-06
2.59844e-06
2.74308e-06
2.89548e-06
3.05602e-06
3.22512e-06
3.40319e-06
3.5907e-06
3.78811e-06
3.99592e-06
4.21464e-06
4.44481e-06
4.687e-06
4.9418e-06
5.20982e-06
5.49173e-06
5.78818e-06
6.0999e-06
6.42762e-06
6.77213e-06
7.13422e-06
7.51474e-06
7.91459e-06
8.33469e-06
8.77599e-06
9.23952e-06
9.72632e-06
1.02375e-05
1.07742e-05
1.13376e-05
1.19291e-05
1.25497e-05
1.32011e-05
1.38845e-05
1.46015e-05
1.53536e-05
1.61424e-05
1.69696e-05
1.78369e-05
1.87463e-05
1.96995e-05
2.06987e-05
2.17458e-05
2.2843e-05
2.39925e-05
2.51968e-05
2.64582e-05
2.77793e-05
2.91626e-05
3.06111e-05
3.21274e-05
3.37147e-05
3.5376e-05
3.71144e-05
3.89335e-05
4.08365e-05
4.28273e-05
4.49094e-05
4.7087e-05
4.93639e-05
5.17444e-05
5.4233e-05
5.68342e-05
5.95527e-05
6.23934e-05
6.53614e-05
6.84621e-05
7.17009e-05
7.50836e-05
7.8616e-05
8.23043e-05
8.61549e-05
9.01744e-05
9.43697e-05
9.87478e-05
0.000103316
0.000108082
0.000113054
0.00011824
0.000123648
0.000129288
0.000135168
0.000141298
0.000147687
0.000154346
0.000161285
0.000168515
0.000176048
0.000183894
0.000192065
0.000200575
0.000209436
0.000218661
0.000228264
0.000238259
0.000248661
0.000259485
0.000270746
0.00028246
0.000294645
0.000307317
0.000320495
0.000334195
0.000348439
0.000363244
0.000378631
0.00039462
0.000411234
0.000428494
0.000446423
0.000465044
0.000484382
0.000504462
0.000525308
0.000546948
0.000569409
0.000592719
0.000616906
0.000642001
0.000668034
0.000695036
0.000723039
0.000752078
0.000782186
0.000813398
0.000845752
0.000879283
0.00091403
0.000950032
0.000987331
0.00102597
0.00106598
0.00110742
0.00115033
0.00119475
0.00124073
0.00128833
0.00133758
0.00138855
0.00144128
0.00149583
0.00155224
0.00161059
0.00167093
0.00173331
0.0017978
0.00186445
0.00193334
0.00200453
0.00207808
0.00215407
0.00223255
0.00231362
0.00239733
0.00248376
0.00257299
0.0026651
0.00276016
0.00285826
0.00295949
0.00306392
0.00317165
0.00328275
0.00339734
0.00351549
0.0036373
0.00376287
0.00389229
0.00402567
0.00416311
0.00430471
0.00445058
0.00460083
0.00475557
0.0049149
0.00507895
0.00524783
0.00542166
0.00560056
0.00578465
0.00597406
0.00616892
0.00636934
0.00657548
0.00678745
0.00700539
0.00722945
0.00745976
0.00769646
0.0079397
0.00818962
0.00844637
0.00871011
0.00898098
0.00925914
0.00954475
0.00983796
0.0101389
0.0104478
0.0107649
0.0110901
0.0114238
0.0117661
0.0121172
0.0124772
0.0128464
0.0132248
0.0136128
0.0140104
0.0144178
0.0148353
0.0152631
0.0157012
0.01615
0.0166095
0.0170801
0.0175618
0.0180549
0.0185597
0.0190761
0.0196046
0.0201453
0.0206983
0.021264
0.0218424
0.0224339
0.0230386
0.0236566
0.0242884
0.0249339
0.0255935
0.0262673
0.0269557
0.0276587
0.0283765
0.0291095
0.0298578
0.0306216
0.0314011
0.0321966
0.0330082
0.0338362
0.0346807
0.035542
0.0364202
0.0373157
0.0382285
0.0391589
0.0401071
0.0410733
0.0420577
0.0430605
0.0440818
0.0451219
0.0461809
0.0472591
0.0483566
0.0494736
0.0506103
0.0517669
0.0529435
0.0541402
0.0553574
0.0565951
0.0578535
0.0591327
0.0604329
0.0617542
0.0630968
0.0644609
0.0658465
0.0672537
0.0686828
0.0701338
0.0716068
0.0731019
0.0746192
0.0761589
0.077721
0.0793056
0.0809128
0.0825426
0.0841951
0.0858703
0.0875684
0.0892893
0.0910331
0.0927998
0.0945894
0.0964019
0.0982374
0.100096
0.101977
0.103881
0.105808
0.107758
0.109731
0.111726
0.113744
0.115785
0.117848
0.119933
0.122041
0.124171
0.126323
0.128497
0.130693
0.13291
0.135148
0.137408
0.139689
0.141991
0.144314
0.146657
0.14902
0.151403
0.153806
0.156229
0.158671
0.161131
0.16361
0.166108
0.168623
0.171157
0.173707
0.176275
0.178859
0.181459
0.184075
0.186707
0.189354
0.192015
0.19469
0.19738
0.200082
0.202798
0.205526
0.208266
0.211017
0.213779
0.216551
0.219334
0.222125
0.224926
0.227734
0.230551
0.233374
0.236204
0.23904
0.241881
0.244727
0.247577
0.25043
0.253286
0.256145
0.259004
0.261865
0.264726
0.267586
0.270445
0.273303
0.276157
0.279009
0.281856
0.284699
0.287537
0.290368
0.293192
0.296009
0.298817
0.301617
0.304406
0.307185
0.309953
0.312708
0.315451
0.31818
0.320895
0.323594
0.326278
0.328945
0.331595
0.334226
0.336838
0.339431
0.342003
0.344554
0.347083
0.349589
0.352072
0.35453
0.356964
0.359371
0.361752
0.364106
0.366432
0.368729
0.370997
0.373235
0.375442
0.377617
0.37976
0.38187
0.383946
0.385989
0.387996
0.389968
0.391903
0.393802
0.395663
0.397486
0.39927
0.401015
0.402721
0.404385
0.406009
0.407591
0.409131
0.410629
0.412083
0.413494
0.41486
0.416182
0.41746
0.418691
0.419877
0.421016
0.422109
0.423155
0.424154
0.425104
0.426007
0.426861
0.427666
0.428423
0.42913
0.429788
0.430396
0.430954
0.431462
0.43192
0.432327
0.432684
0.43299
0.433245
0.433449
0.433603
0.433705
0.433756
0.433756
0.433705
0.433603
0.433449
0.433245
0.43299
0.432684
0.432327
0.43192
0.431462
0.430954
0.430396
0.429788
0.42913
0.428423
0.427666
0.426861
0.426007
0.425104
0.424154
0.423155
0.422109
0.421016
0.419877
0.418691
0.41746
0.416182
0.41486
0.413494
0.412083
0.410629
0.409131
0.407591
0.406009
0.404385
0.402721
0.401015
0.39927
0.397486
0.395663
0.393802
0.391903
0.389968
0.387996
0.385989
0.383946
0.38187
0.37976
0.377617
0.375442
0.373235
0.370997
0.368729
0.366432
0.364106
0.361752
0.359371
0.356964
0.35453
0.352072
0.349589
0.347083
0.344554
0.342003
0.339431
0.336838
0.334226
0.331595
0.328945
0.326278
0.323594
0.320895
0.31818
0.315451
0.312708
0.309953
0.307185
0.304406
0.301617
0.298817
0.296009
0.293192
0.290368
0.287537
0.284699
0.281856
0.279009
0.276157
0.273303
0.270445
0.267586
0.264726
0.261865
0.259004
0.256145
0.253286
0.25043
0.247577
0.244727
0.241881
0.23904
0.236204
0.233374
0.230551
0.227734
0.224926
0.222125
0.219334
0.216551
0.213779
0.211017
0.208266
0.205526
0.202798
0.200082
0.19738
0.19469
0.192015
0.189354
0.186707
0.184075
0.181459
0.178859
0.176275
0.173707
0.171157
0.168623
0.166108
0.16361
0.161131
0.158671
0.156229
0.153806
0.151403
0.14902
0.146657
0.144314
0.141991
0.139689
0.137408
0.135148
0.13291
0.130693
0.128497
0.126323
0.124171
0.122041
0.119933
0.117848
0.115785
0.113744
0.111726
0.109731
0.107758
0.105808
0.103881
0.101977
0.100096
0.0982374
0.0964019
0.0945894
0.0927998
0.0910331
0.0892893
0.0875684
0.0858703
0.0841951
0.0825426
0.0809128
0.0793056
0.077721
0.0761589
0.0746192
0.0731019
0.0716068
0.0701338
0.0686828
0.0672537
0.0658465
0.0644609
0.0630968
0.0617542
0.0604329
0.0591327
0.0578535
0.0565951
0.0553574
0.0541402
0.0529435
0.0517669
0.0506103
0.0494736
0.0483566
0.0472591
0.0461809
0.0451219
0.0440818
0.0430605
0.0420577
0.0410733
0.0401071
0.0391589
0.0382285
0.0373157
0.0364202
0.035542
0.0346807
0.0338362
0.0330082
0.0321966
0.0314011
0.0306216
0.0298578
0.0291095
0.0283765
0.0276587
0.0269557
0.0262673
0.0255935
0.0249339
0.0242884
0.0236566
0.0230386
0.0224339
0.0218424
0.021264
0.0206983
0.0201453
0.0196046
0.0190761
0.0185597
0.0180549
0.0175618
0.0170801
0.0166095
0.01615
0.0157012
0.0152631
0.0148353
0.0144178
0.0140104
0.0136128
0.0132248
0.0128464
0.0124772
0.0121172
0.0117661
0.0114238
0.0110901
0.0107649
0.0104478
0.0101389
0.00983796
0.00954475
0.00925914
0.00898098
0.00871011
0.00844637
0.00818962
0.0079397
0.00769646
0.00745976
0.00722945
0.00700539
0.00678745
0.00657548
0.00636934
0.00616892
0.00597406
0.00578465
0.00560056
0.00542166
0.00524783
0.00507895
0.0049149
0.00475557
0.00460083
0.00445058
0.00430471
0.00416311
0.00402567
0.00389229
0.00376287
0.0036373
0.00351549
0.00339734
0.00328275
0.00317165
0.00306392
0.00295949
0.00285826
0.00276016
0.0026651
0.00257299
0.00248376
0.00239733
0.00231362
0.00223255
0.00215407
0.00207808
0.00200453
0.00193334
0.00186445
0.0017978
0.00173331
0.00167093
0.00161059
0.00155224
0.00149583
0.00144128
0.00138855
0.00133758
0.00128833
0.00124073
0.00119475
0.00115033
0.00110742
0.00106598
0.00102597
0.000987331
0.000950032
0.00091403
0.000879283
0.000845752
0.000813398
0.000782186
0.000752078
0.000723039
0.000695036
0.000668034
0.000642001
0.000616906
0.000592719
0.000569409
0.000546948
0.000525308
0.000504462
0.000484382
0.000465044
0.000446423
0.000428494
0.000411234
0.00039462
0.000378631
0.000363244
0.000348439
0.000334195
0.000320495
0.000307317
0.000294645
0.00028246
0.000270746
0.000259485
0.000248661
0.000238259
0.000228264
0.000218661
0.000209436
0.000200575
0.000192065
0.000183894
0.000176048
0.000168515
0.000161285
0.000154346
0.000147687
0.000141298
0.000135168
0.000129288
0.000123648
0.00011824
0.000113054
0.000108082
0.000103316
9.87478e-05
9.43697e-05
9.01744e-05
8.61549e-05
8.23043e-05
7.8616e-05
7.50836e-05
7.17009e-05
6.84621e-05
6.53614e-05
6.23934e-05
5.95527e-05
5.68342e-05
5.4233e-05
5.17444e-05
4.93639e-05
4.7087e-05
4.49094e-05
4.28273e-05
4.08365e-05
3.89335e-05
3.71144e-05
3.5376e-05
3.37147e-05
3.21274e-05
3.06111e-05
2.91626e-05
2.77793e-05
2.64582e-05
2.51968e-05
2.39925e-05
2.2843e-05
2.17458e-05
2.06987e-05
1.96995e-05
1.87463e-05
1.78369e-05
1.69696e-05
1.61424e-05
1.53536e-05
1.46015e-05
1.38845e-05
1.32011e-05
1.25497e-05
1.19291e-05
1.13376e-05
1.07742e-05
1.02375e-05
9.72632e-06
9.23952e-06
8.77599e-06
8.33469e-06
7.91459e-06
7.51474e-06
7.13422e-06
6.77213e-06
6.42762e-06
6.0999e-06
5.78818e-06
5.49173e-06
5.20982e-06
4.9418e-06
4.687e-06
4.44481e-06
4.21464e-06
3.99592e-06
3.78811e-06
3.5907e-06
3.40319e-06
3.22512e-06
3.05602e-06
2.89548e-06
2.74308e-06
2.59844e-06
2.46118e-06
2.33094e-06
2.20739e-06
2.09021e-06
1.97908e-06
1.87371e-06
1.77383e-06
1.67916e-06
1.58945e-06
1.50446e-06
1.42396e-06
1.34772e-06
1.27555e-06
1.20725e-06
1.14262e-06
1.08148e-06
1.02367e-06
9.69022e-07
9.17384e-07
8.68609e-07
8.22559e-07
7.79103e-07
7.38117e-07
6.99483e-07
6.63089e-07
6.2883e-07
5.96607e-07
5.66324e-07
5.37894e-07
5.11234e-07
4.86263e-07
4.62909e-07
4.41101e-07
4.20775e-07
4.01871e-07
3.84331e-07
3.68102e-07
3.53136e-07
3.39388e-07
3.26815e-07
3.1538e-07
3.05047e-07
2.95786e-07
2.87567e-07
2.80367e-07
2.74162e-07
2.68933e-07
2.64665e-07
2.61345e-07
2.58962e-07
2.57509e-07
2.56981e-07
)
;

boundaryField
{
    sides
    {
        type            zeroGradient;
    }
    empty
    {
        type            empty;
    }
}


// ************************************************************************* //
