/*--------------------------------*- C++ -*----------------------------------*\
| =========                 |                                                 |
| \\      /  F ield         | OpenFOAM: The Open Source CFD Toolbox           |
|  \\    /   O peration     | Version:  2312                                  |
|   \\  /    A nd           | Website:  www.openfoam.com                      |
|    \\/     M anipulation  |                                                 |
\*---------------------------------------------------------------------------*/
FoamFile
{
    version     2.0;
    format      ascii;
    arch        "LSB;label=32;scalar=64";
    class       volScalarField;
    location    "4.7";
    object      T;
}
// * * * * * * * * * * * * * * * * * * * * * * * * * * * * * * * * * * * * * //

dimensions      [0 0 0 1 0 0 0];

internalField   nonuniform List<scalar> 
1000
(
0
0
0
0
0
0
0
0
0
0
0
0
0
0
0
0
0
0
0
0
0
0
0
0
0
0
0
0
0
0
0
0
0
0
0
0
0
0
0
0
0
0
0
0
0
0
0
0
0
0
0
0
0
0
0
0
0
0
0
0
0
0
0
0
0
0
0
0
0
0
0
0
0
0
0
0
0
0
0
0
0
0
0
0
0
0
0
0
0
0
0
0
0
0
0
0
0
0
0
0
0
0
0
0
0
0
0
0
0
0
0
0
0
0
0
0
0
0
0
0
0
0
0
0
0
0
0
0
0
0
0
0
0
0
0
0
0
0
0
0
0
0
0
0
0
0
0
0
0
0
0
0
0
0
0
0
0
0
0
0
0
0
0
0
0
0
0
0
0
0
0
0
0
-4.94066e-324
2.96439e-323
-4.94066e-324
2.96439e-323
-4.94066e-324
2.96439e-323
-4.94066e-324
2.96439e-323
-4.94066e-324
2.96439e-323
-4.94066e-324
2.96439e-323
-4.94066e-324
2.96439e-323
-4.94066e-324
2.96439e-323
-4.94066e-324
2.96439e-323
-4.94066e-324
2.96439e-323
-4.94066e-324
2.96439e-323
-4.94066e-324
2.96439e-323
-4.94066e-324
2.96439e-323
-4.94066e-324
2.96439e-323
-4.94066e-324
2.96439e-323
-4.94066e-324
2.96439e-323
-4.94066e-324
2.96439e-323
-4.94066e-324
2.96439e-323
-4.94066e-324
2.96439e-323
-4.94066e-324
2.96439e-323
-4.94066e-324
2.96439e-323
-4.94066e-324
2.96439e-323
-4.94066e-324
2.96439e-323
-4.94066e-324
2.96439e-323
-4.94066e-324
2.96439e-323
-4.94066e-324
2.96439e-323
-4.94066e-324
2.96439e-323
-4.94066e-324
2.96439e-323
-4.94066e-324
2.96439e-323
-4.94066e-324
2.96439e-323
-4.94066e-324
2.96439e-323
-4.94066e-324
2.96439e-323
-4.94066e-324
2.96439e-323
-4.94066e-324
2.96439e-323
-4.94066e-324
2.96439e-323
-4.94066e-324
2.96439e-323
-4.94066e-324
2.96439e-323
-4.94066e-324
2.96439e-323
-4.94066e-324
2.96439e-323
-4.94066e-324
2.96439e-323
-4.94066e-324
2.96439e-323
-4.94066e-324
2.96439e-323
-4.94066e-324
9.88131e-324
2.96439e-323
5.43472e-323
7.41098e-323
9.88131e-323
1.18576e-322
1.43279e-322
1.63042e-322
1.87745e-322
2.12448e-322
2.37152e-322
2.61855e-322
2.86558e-322
3.06321e-322
3.26083e-322
3.45846e-322
3.65609e-322
4.15015e-322
4.00193e-322
3.7549e-322
3.55727e-322
3.35965e-322
3.16202e-322
2.96439e-322
2.76677e-322
2.51973e-322
2.2727e-322
2.02567e-322
1.77864e-322
1.5316e-322
1.33398e-322
1.08694e-322
8.89318e-323
6.42285e-323
4.44659e-323
1.97626e-323
-4.94066e-324
-2.96439e-323
-4.94066e-323
-7.41098e-323
-9.38725e-323
-1.13635e-322
-1.38338e-322
-1.63042e-322
-1.87745e-322
-2.07508e-322
-2.2727e-322
-2.51973e-322
-2.71736e-322
-2.96439e-322
-3.16202e-322
-3.40905e-322
-3.65609e-322
-3.85371e-322
-4.05134e-322
-4.24896e-322
-4.496e-322
-4.74303e-322
-4.99006e-322
-5.2371e-322
-5.48413e-322
-5.73116e-322
-5.97819e-322
-6.17582e-322
-6.42285e-322
-6.62048e-322
-6.81811e-322
-7.01573e-322
-7.21336e-322
-8.3003e-322
-6.0276e-321
-2.148e-319
-7.60127e-318
-2.40669e-316
-6.87009e-315
-1.77244e-313
-7.16214e-313
8.98117e-313
4.86773e-311
1.03173e-309
1.9289e-308
3.34596e-307
5.43114e-306
8.28012e-305
1.18906e-303
1.61241e-302
2.06922e-301
2.51778e-300
2.90918e-299
3.19579e-298
3.34235e-297
3.34373e-296
3.25249e-295
3.19797e-294
3.36639e-293
3.98114e-292
5.39192e-291
8.36763e-290
1.4677e-288
2.81314e-287
5.64151e-286
1.13515e-284
2.22744e-283
4.17341e-282
7.45825e-281
1.25936e-279
2.01999e-278
3.11271e-277
1.62675e-276
7.20648e-277
-2.70701e-275
-4.2341e-274
-5.37848e-273
-6.36663e-272
-7.17993e-271
-7.79371e-270
-8.28914e-269
-8.9333e-268
-1.01949e-266
-1.27307e-265
-1.75191e-264
-2.64477e-263
-4.36952e-262
-7.84325e-261
-1.49502e-259
-2.93265e-258
-5.74263e-257
-1.09594e-255
-2.01659e-254
-3.54456e-253
-5.93422e-252
-9.52878e-251
-1.01884e-249
-1.21592e-249
7.22546e-249
1.46276e-247
1.99353e-246
2.4831e-245
2.93284e-244
3.30783e-243
3.57109e-242
3.69688e-241
3.67802e-240
3.53179e-239
3.30492e-238
3.06936e-237
2.90921e-236
2.96347e-235
3.58832e-234
5.68625e-233
1.14437e-231
2.59373e-230
5.99941e-229
1.35036e-227
2.89172e-226
5.8561e-225
1.11426e-223
2.04701e-222
1.4044e-221
8.00844e-222
-2.49431e-220
-4.50423e-219
-6.59034e-218
-8.97313e-217
-1.15865e-215
-1.42519e-214
-1.67387e-213
-1.88113e-212
-2.02744e-211
-2.10143e-210
-2.1031e-209
-2.04537e-208
-1.95351e-207
-1.86197e-206
-1.80898e-205
-1.82984e-204
-1.95165e-203
-2.19083e-202
-2.55762e-201
-3.06718e-200
-3.7535e-199
-4.67199e-198
-5.88218e-197
-7.40288e-196
-9.26726e-195
-1.15587e-193
-1.46741e-192
-1.92295e-191
-2.57368e-190
-1.06225e-189
-2.09719e-190
2.09153e-188
3.09083e-187
3.76812e-186
4.4583e-185
5.61273e-184
7.7227e-183
1.10342e-181
1.53027e-180
1.97268e-179
2.31185e-178
2.42337e-177
2.26841e-176
2.06288e-175
2.25941e-174
3.38582e-173
6.10287e-172
1.12173e-170
1.96041e-169
3.14065e-168
4.64792e-167
5.8035e-166
1.46444e-165
-8.99631e-166
-3.90507e-164
-1.36136e-163
-1.93322e-164
1.03142e-162
8.33286e-163
-1.01338e-161
-1.23023e-160
-1.01727e-159
-7.24299e-159
-4.66718e-158
-1.71395e-157
-1.69298e-157
2.9171e-157
3.70772e-156
2.22507e-155
7.19818e-155
7.24012e-155
-6.54245e-155
-9.91298e-154
-5.8053e-153
-3.37734e-152
-2.52077e-151
-2.34642e-150
-2.32718e-149
-2.22433e-148
-1.97009e-147
-1.59495e-146
-1.17242e-145
-7.81467e-145
-4.86619e-144
-3.16338e-143
-2.51898e-142
-2.57568e-141
-3.05859e-140
-3.83417e-139
-4.82138e-138
-6.03782e-137
-3.13038e-136
-2.06489e-136
3.59118e-135
2.45444e-134
1.7724e-134
-2.40075e-133
-2.96318e-132
-2.2248e-131
-4.97657e-131
-2.1017e-131
2.79705e-130
1.80083e-129
7.69531e-129
3.40748e-128
2.1926e-127
1.97516e-126
1.99847e-125
2.04525e-124
1.96044e-123
5.48651e-123
8.77724e-124
-1.82434e-122
1.1542e-122
5.97364e-121
7.2409e-120
7.43979e-119
4.27097e-118
4.17172e-118
-2.12269e-117
-3.19182e-116
-2.34765e-115
-2.91894e-115
7.13244e-115
1.30682e-113
1.01428e-112
1.40945e-112
-2.38468e-112
-4.87426e-111
-4.695e-110
-1.62231e-109
-9.39224e-110
1.32147e-108
1.51741e-107
9.79598e-107
1.20378e-106
-2.32367e-106
-4.17921e-105
-3.81613e-104
-1.89702e-103
-1.90143e-103
6.26296e-103
8.90027e-102
6.82349e-101
1.32032e-100
-1.49631e-101
-1.84729e-99
-1.71553e-98
-1.25109e-97
-3.02729e-97
-1.12755e-97
2.59272e-96
2.4913e-95
1.83065e-94
5.55973e-94
3.83297e-94
-2.92294e-93
-3.04312e-92
-2.25594e-91
-9.18862e-91
-8.94118e-91
2.38856e-90
3.12395e-89
2.32966e-88
1.23331e-87
1.66882e-87
-9.311e-88
-2.6549e-86
-2.06126e-85
-1.35158e-84
-8.40478e-84
-5.10593e-83
-3.05847e-82
-1.81247e-81
-1.06398e-80
-6.18875e-80
-3.56581e-79
-2.03697e-78
-1.12282e-77
-3.09296e-77
-2.5344e-77
8.81584e-77
9.11236e-76
5.81372e-75
3.31435e-74
1.81207e-73
9.70648e-73
5.13168e-72
2.68495e-71
1.39167e-70
7.1488e-70
3.64002e-69
1.83732e-68
9.19384e-68
4.56098e-67
2.24327e-66
1.09391e-65
5.28889e-65
2.53541e-64
1.20515e-63
5.68007e-63
2.65459e-62
1.23023e-61
5.65358e-61
2.57647e-60
1.16439e-59
5.21861e-59
2.31954e-58
1.02247e-57
4.47001e-57
1.93814e-56
8.33469e-56
3.55491e-55
1.50388e-54
6.31028e-54
2.6263e-53
1.0842e-52
4.43962e-52
1.80329e-51
7.26567e-51
2.9039e-50
1.1513e-49
4.52801e-49
1.76661e-48
6.83746e-48
2.62529e-47
9.99982e-47
3.77873e-46
1.41659e-45
5.26856e-45
1.94399e-44
7.11629e-44
2.58451e-43
9.31258e-43
3.32916e-42
1.1808e-41
4.15524e-41
1.45078e-40
5.02566e-40
1.72733e-39
5.89051e-39
1.99309e-38
6.69113e-38
2.22882e-37
7.3664e-37
2.41569e-36
7.86027e-36
2.53772e-35
8.12947e-35
2.58401e-34
8.14971e-34
2.55039e-33
7.9193e-33
2.43998e-32
7.45938e-32
2.26276e-31
6.81071e-31
2.03407e-30
6.02778e-30
1.77242e-29
5.17123e-29
1.49705e-28
4.30027e-28
1.22565e-27
3.4662e-27
9.72633e-27
2.70803e-26
7.4811e-26
2.0506e-25
5.57698e-25
1.50493e-24
4.02929e-24
1.07037e-23
2.82116e-23
7.37748e-23
1.91412e-22
4.92728e-22
1.2584e-21
3.18858e-21
8.01564e-21
1.99911e-20
4.94638e-20
1.21419e-19
2.9568e-19
7.1432e-19
1.71195e-18
4.07013e-18
9.59928e-18
2.24581e-17
5.21203e-17
1.19985e-16
2.73987e-16
6.20588e-16
1.39425e-15
3.1069e-15
6.86686e-15
1.50529e-14
3.2727e-14
7.0567e-14
1.50902e-13
3.2002e-13
6.73027e-13
1.40362e-12
2.90279e-12
5.95275e-12
1.21043e-11
2.44043e-11
4.87849e-11
9.66896e-11
1.89991e-10
3.70107e-10
7.14738e-10
1.36828e-09
2.5965e-09
4.88397e-09
9.10555e-09
1.68255e-08
3.08133e-08
5.59236e-08
1.00581e-07
1.79256e-07
3.16554e-07
5.53876e-07
9.60157e-07
1.64896e-06
2.80536e-06
4.72768e-06
7.89152e-06
1.30465e-05
2.13608e-05
3.46338e-05
5.56039e-05
8.83891e-05
0.000139106
0.000216724
0.000334229
0.000510175
0.000770707
0.00115216
0.00170429
0.00249425
0.00361121
0.00517171
0.00732546
0.0102613
0.0142132
0.0194643
0.026351
0.0352622
0.0466358
0.0609495
0.0787057
0.100409
0.126536
0.157498
0.193603
0.235003
0.281658
0.333293
0.38937
0.449078
0.511344
0.574861
0.638153
0.699655
0.757813
0.811196
0.858603
0.899159
0.932376
0.958188
0.976925
0.989259
0.996188
0.999131
0.999901
0.999996
1
1
1
1
1
1
1
1
1
1
1
1
1
1
1
1
1
1
1
1
1
1
1
1
1
1
1
1
1
1
1
1
1
1
1
1
1
1
1
1
1
1
1
1
1
0.999999
0.999999
0.999998
0.999997
0.999995
0.999992
0.999987
0.999979
0.999965
0.999944
0.999912
0.999861
0.999783
0.999665
0.999489
0.999229
0.998847
0.998294
0.997504
0.996386
0.994824
0.992669
0.989732
0.985778
0.980523
0.973633
0.964718
0.953339
0.93902
0.921257
0.899546
0.873411
0.84244
0.806327
0.764918
0.718255
0.666613
0.61053
0.550817
0.48855
0.425034
0.361745
0.300249
0.242099
0.188726
0.14133
0.100786
0.0675807
0.0417799
0.0230536
0.0107279
0.00380571
0.00086693
9.81887e-05
4.03064e-06
4.34146e-08
9.23455e-11
3.08391e-14
2.70638e-18
2.34798e-22
2.02155e-26
1.73404e-30
1.48693e-34
1.27765e-38
1.10138e-42
9.52608e-47
8.26171e-51
7.17777e-55
6.24105e-59
5.42687e-63
4.71698e-67
4.09746e-71
3.55718e-75
3.08668e-79
2.67761e-83
2.32245e-87
2.01437e-91
1.74729e-95
1.51578e-99
1.31508e-103
1.14105e-107
9.90091e-112
8.59126e-116
7.45484e-120
6.46865e-124
5.61281e-128
4.87012e-132
4.22564e-136
3.6664e-140
3.18116e-144
2.76014e-148
2.39484e-152
2.07789e-156
1.80289e-160
1.56429e-164
1.35726e-168
1.17763e-172
1.02177e-176
8.86541e-181
7.69205e-185
6.67398e-189
5.79063e-193
5.0242e-197
4.35919e-201
3.7822e-205
3.28158e-209
2.84721e-213
2.47034e-217
2.14334e-221
1.85963e-225
1.61347e-229
1.39989e-233
1.21458e-237
1.0538e-241
9.14299e-246
7.93264e-250
6.88251e-254
5.97138e-258
5.18086e-262
4.49499e-266
3.89991e-270
3.3836e-274
2.93564e-278
2.54698e-282
2.20977e-286
1.91721e-290
1.66337e-294
1.44314e-298
1.25207e-302
1.08629e-306
9.42461e-311
8.17673e-315
7.09365e-319
5.43472e-323
0
0
0
0
0
0
0
0
0
0
0
0
0
0
0
0
0
0
0
0
0
0
0
0
0
0
)
;

boundaryField
{
    sides
    {
        type            zeroGradient;
    }
    empty
    {
        type            empty;
    }
}


// ************************************************************************* //
