/*--------------------------------*- C++ -*----------------------------------*\
| =========                 |                                                 |
| \\      /  F ield         | OpenFOAM: The Open Source CFD Toolbox           |
|  \\    /   O peration     | Version:  2312                                  |
|   \\  /    A nd           | Website:  www.openfoam.com                      |
|    \\/     M anipulation  |                                                 |
\*---------------------------------------------------------------------------*/
FoamFile
{
    version     2.0;
    format      ascii;
    arch        "LSB;label=32;scalar=64";
    class       volScalarField;
    location    "0.8";
    object      T;
}
// * * * * * * * * * * * * * * * * * * * * * * * * * * * * * * * * * * * * * //

dimensions      [0 0 0 1 0 0 0];

internalField   nonuniform List<scalar> 
1000
(
3.35952e-28
3.49051e-28
3.85941e-28
4.49063e-28
5.4259e-28
6.72691e-28
8.47928e-28
1.0798e-27
1.38348e-27
1.77877e-27
2.29134e-27
2.95438e-27
3.81065e-27
4.91514e-27
6.33853e-27
8.17154e-27
1.05305e-26
1.35646e-26
1.74649e-26
2.2476e-26
2.89109e-26
3.71699e-26
4.77647e-26
6.13489e-26
7.87574e-26
1.01055e-25
1.29602e-25
1.66129e-25
2.12845e-25
2.7256e-25
3.48855e-25
4.46282e-25
5.70631e-25
7.29262e-25
9.31523e-25
1.18928e-24
1.5176e-24
1.93558e-24
2.46743e-24
3.14384e-24
4.00364e-24
5.09602e-24
6.48317e-24
8.24372e-24
1.04771e-23
1.33087e-23
1.6897e-23
2.14419e-23
2.71955e-23
3.44754e-23
4.36817e-23
5.53183e-23
7.00191e-23
8.85813e-23
1.12007e-22
1.41556e-22
1.78808e-22
2.25748e-22
2.84864e-22
3.59276e-22
4.52894e-22
5.70613e-22
7.1856e-22
9.044e-22
1.13772e-21
1.43049e-21
1.79767e-21
2.25794e-21
2.83458e-21
3.55665e-21
4.46035e-21
5.59077e-21
7.00405e-21
8.77003e-21
1.09756e-20
1.37287e-20
1.71634e-20
2.14463e-20
2.67839e-20
3.34327e-20
4.171e-20
5.20096e-20
6.48185e-20
8.07399e-20
1.00519e-19
1.25079e-19
1.55557e-19
1.93361e-19
2.40226e-19
2.98293e-19
3.70201e-19
4.59202e-19
5.69299e-19
7.05422e-19
8.73633e-19
1.08138e-18
1.33783e-18
1.65422e-18
2.04435e-18
2.52515e-18
3.11737e-18
3.84646e-18
4.74354e-18
5.84675e-18
7.2027e-18
8.86839e-18
1.09135e-17
1.34231e-17
1.65009e-17
2.02737e-17
2.48959e-17
3.05555e-17
3.74816e-17
4.59533e-17
5.63095e-17
6.89628e-17
8.44141e-17
1.03272e-16
1.26275e-16
1.54319e-16
1.8849e-16
2.30103e-16
2.80753e-16
3.42367e-16
4.17278e-16
5.08307e-16
6.18859e-16
7.53049e-16
9.15841e-16
1.11322e-15
1.35241e-15
1.64211e-15
1.99278e-15
2.41703e-15
2.93e-15
3.54993e-15
4.29868e-15
5.20253e-15
6.293e-15
7.60791e-15
9.19255e-15
1.11012e-14
1.33989e-14
1.61633e-14
1.94874e-14
2.34823e-14
2.82807e-14
3.40411e-14
4.09523e-14
4.92397e-14
5.91718e-14
7.10684e-14
8.53099e-14
1.02349e-13
1.22725e-13
1.47075e-13
1.76161e-13
2.10882e-13
2.52309e-13
3.01706e-13
3.60577e-13
4.30697e-13
5.1417e-13
6.13482e-13
7.31571e-13
8.7191e-13
1.0386e-12
1.23646e-12
1.47122e-12
1.74957e-12
2.07943e-12
2.47011e-12
2.93257e-12
3.47968e-12
4.12657e-12
4.89099e-12
5.79381e-12
6.85946e-12
8.11659e-12
9.59877e-12
1.13453e-11
1.34021e-11
1.5823e-11
1.86708e-11
2.20188e-11
2.59527e-11
3.05723e-11
3.59941e-11
4.23538e-11
4.98092e-11
5.85441e-11
6.87724e-11
8.07423e-11
9.47426e-11
1.11108e-10
1.30227e-10
1.52551e-10
1.78601e-10
2.08981e-10
2.44392e-10
2.85643e-10
3.33668e-10
3.89549e-10
4.54532e-10
5.30056e-10
6.17781e-10
7.19619e-10
8.37771e-10
9.74771e-10
1.13353e-09
1.31741e-09
1.53025e-09
1.77647e-09
2.06114e-09
2.39008e-09
2.76994e-09
3.20836e-09
3.71406e-09
4.29703e-09
4.9687e-09
5.74208e-09
6.63209e-09
7.65569e-09
8.83226e-09
1.01839e-08
1.17356e-08
1.35162e-08
1.5558e-08
1.78981e-08
2.05784e-08
2.36467e-08
2.71569e-08
3.11705e-08
3.57569e-08
4.09948e-08
4.69731e-08
5.37926e-08
6.15669e-08
7.04246e-08
8.05107e-08
9.19888e-08
1.05043e-07
1.19882e-07
1.36738e-07
1.55875e-07
1.77589e-07
2.02213e-07
2.30118e-07
2.61725e-07
2.97503e-07
3.37977e-07
3.83739e-07
4.35446e-07
4.93839e-07
5.5974e-07
6.34072e-07
7.17864e-07
8.12262e-07
9.18547e-07
1.03814e-06
1.17264e-06
1.3238e-06
1.49358e-06
1.68418e-06
1.898e-06
2.13775e-06
2.4064e-06
2.70725e-06
3.04396e-06
3.42059e-06
3.84161e-06
4.31197e-06
4.83714e-06
5.42315e-06
6.07666e-06
6.80501e-06
7.61628e-06
8.51936e-06
9.52404e-06
1.06411e-05
1.18823e-05
1.32607e-05
1.47904e-05
1.64872e-05
1.8368e-05
2.04516e-05
2.27585e-05
2.5311e-05
2.81336e-05
3.1253e-05
3.46983e-05
3.85013e-05
4.26965e-05
4.73216e-05
5.24176e-05
5.8029e-05
6.42041e-05
7.09956e-05
7.84603e-05
8.66601e-05
9.56618e-05
0.000105538
0.000116367
0.000128233
0.000141228
0.000155451
0.000171008
0.000188014
0.000206592
0.000226876
0.000249009
0.000273144
0.000299446
0.000328094
0.000359276
0.000393196
0.000430072
0.000470138
0.000513642
0.00056085
0.000612048
0.000667537
0.000727641
0.000792704
0.000863091
0.000939192
0.00102142
0.00111021
0.00120604
0.00130939
0.00142079
0.00154078
0.00166997
0.00180895
0.00195839
0.00211897
0.00229141
0.00247648
0.00267499
0.00288777
0.00311571
0.00335974
0.00362083
0.00390002
0.00419836
0.00451697
0.00485702
0.00521973
0.00560638
0.00601827
0.00645681
0.0069234
0.00741956
0.00794682
0.00850678
0.00910111
0.00973152
0.0103998
0.0111078
0.0118573
0.0126504
0.0134891
0.0143754
0.0153114
0.0162993
0.0173414
0.0184399
0.0195972
0.0208157
0.0220977
0.0234459
0.0248626
0.0263505
0.0279121
0.0295502
0.0312673
0.0330662
0.0349496
0.0369202
0.0389808
0.0411342
0.043383
0.0457302
0.0481784
0.0507303
0.0533889
0.0561566
0.0590364
0.0620307
0.0651422
0.0683735
0.0717271
0.0752053
0.0788107
0.0825454
0.0864117
0.0904118
0.0945475
0.0988209
0.103234
0.107788
0.112484
0.117325
0.122311
0.127443
0.132723
0.138151
0.143728
0.149454
0.155329
0.161354
0.167529
0.173852
0.180324
0.186943
0.193709
0.200621
0.207677
0.214875
0.222214
0.229691
0.237304
0.245051
0.252928
0.260933
0.269062
0.277312
0.285679
0.294158
0.302747
0.31144
0.320232
0.329119
0.338096
0.347156
0.356296
0.365508
0.374788
0.384128
0.393523
0.402967
0.412452
0.421972
0.43152
0.441088
0.450671
0.46026
0.469848
0.479428
0.488992
0.498532
0.508042
0.517512
0.526936
0.536305
0.545611
0.554848
0.564007
0.57308
0.582059
0.590937
0.599706
0.608359
0.616887
0.625284
0.633542
0.641653
0.649611
0.657408
0.665038
0.672494
0.679769
0.686856
0.693749
0.700442
0.70693
0.713205
0.719263
0.725099
0.730706
0.736079
0.741215
0.746108
0.750754
0.755149
0.759288
0.763169
0.766787
0.77014
0.773223
0.776036
0.778574
0.780836
0.78282
0.784524
0.785946
0.787085
0.78794
0.788511
0.788796
0.788796
0.788511
0.78794
0.787085
0.785946
0.784524
0.78282
0.780836
0.778574
0.776036
0.773223
0.77014
0.766787
0.763169
0.759288
0.755149
0.750754
0.746108
0.741215
0.736079
0.730706
0.725099
0.719263
0.713205
0.70693
0.700442
0.693749
0.686856
0.679769
0.672494
0.665038
0.657408
0.649611
0.641653
0.633542
0.625284
0.616887
0.608359
0.599706
0.590937
0.582059
0.57308
0.564007
0.554848
0.545611
0.536305
0.526936
0.517512
0.508042
0.498532
0.488992
0.479428
0.469848
0.46026
0.450671
0.441088
0.43152
0.421972
0.412452
0.402967
0.393523
0.384128
0.374788
0.365508
0.356296
0.347156
0.338096
0.329119
0.320232
0.31144
0.302747
0.294158
0.285679
0.277312
0.269062
0.260933
0.252928
0.245051
0.237304
0.229691
0.222214
0.214875
0.207677
0.200621
0.193709
0.186943
0.180324
0.173852
0.167529
0.161354
0.155329
0.149454
0.143728
0.138151
0.132723
0.127443
0.122311
0.117325
0.112484
0.107788
0.103234
0.0988209
0.0945475
0.0904118
0.0864117
0.0825454
0.0788107
0.0752053
0.0717271
0.0683735
0.0651422
0.0620307
0.0590364
0.0561566
0.0533889
0.0507303
0.0481784
0.0457302
0.043383
0.0411342
0.0389808
0.0369202
0.0349496
0.0330662
0.0312673
0.0295502
0.0279121
0.0263505
0.0248626
0.0234459
0.0220977
0.0208157
0.0195972
0.0184399
0.0173414
0.0162993
0.0153114
0.0143754
0.0134891
0.0126504
0.0118573
0.0111078
0.0103998
0.00973152
0.00910111
0.00850678
0.00794682
0.00741956
0.0069234
0.00645681
0.00601827
0.00560638
0.00521973
0.00485702
0.00451697
0.00419836
0.00390002
0.00362083
0.00335974
0.00311571
0.00288777
0.00267499
0.00247648
0.00229141
0.00211897
0.00195839
0.00180895
0.00166997
0.00154078
0.00142079
0.00130939
0.00120604
0.00111021
0.00102142
0.000939192
0.000863091
0.000792704
0.000727641
0.000667537
0.000612048
0.00056085
0.000513642
0.000470138
0.000430072
0.000393196
0.000359276
0.000328094
0.000299446
0.000273144
0.000249009
0.000226876
0.000206592
0.000188014
0.000171008
0.000155451
0.000141228
0.000128233
0.000116367
0.000105538
9.56618e-05
8.66601e-05
7.84603e-05
7.09956e-05
6.42041e-05
5.8029e-05
5.24176e-05
4.73216e-05
4.26965e-05
3.85013e-05
3.46983e-05
3.1253e-05
2.81336e-05
2.5311e-05
2.27585e-05
2.04516e-05
1.8368e-05
1.64872e-05
1.47904e-05
1.32607e-05
1.18823e-05
1.06411e-05
9.52404e-06
8.51936e-06
7.61628e-06
6.80501e-06
6.07666e-06
5.42315e-06
4.83714e-06
4.31197e-06
3.84161e-06
3.42059e-06
3.04396e-06
2.70725e-06
2.4064e-06
2.13775e-06
1.898e-06
1.68418e-06
1.49358e-06
1.3238e-06
1.17264e-06
1.03814e-06
9.18547e-07
8.12262e-07
7.17864e-07
6.34072e-07
5.5974e-07
4.93839e-07
4.35446e-07
3.83739e-07
3.37977e-07
2.97503e-07
2.61725e-07
2.30118e-07
2.02213e-07
1.77589e-07
1.55875e-07
1.36738e-07
1.19882e-07
1.05043e-07
9.19888e-08
8.05107e-08
7.04246e-08
6.15669e-08
5.37926e-08
4.69731e-08
4.09948e-08
3.57569e-08
3.11705e-08
2.71569e-08
2.36467e-08
2.05784e-08
1.78981e-08
1.5558e-08
1.35162e-08
1.17356e-08
1.01839e-08
8.83226e-09
7.65569e-09
6.63209e-09
5.74208e-09
4.9687e-09
4.29703e-09
3.71406e-09
3.20836e-09
2.76994e-09
2.39008e-09
2.06114e-09
1.77647e-09
1.53025e-09
1.31741e-09
1.13353e-09
9.74771e-10
8.37771e-10
7.19619e-10
6.17781e-10
5.30056e-10
4.54532e-10
3.89549e-10
3.33668e-10
2.85643e-10
2.44392e-10
2.08981e-10
1.78601e-10
1.52551e-10
1.30227e-10
1.11108e-10
9.47426e-11
8.07423e-11
6.87724e-11
5.85441e-11
4.98092e-11
4.23538e-11
3.59941e-11
3.05723e-11
2.59527e-11
2.20188e-11
1.86708e-11
1.5823e-11
1.34021e-11
1.13453e-11
9.59877e-12
8.11659e-12
6.85946e-12
5.79381e-12
4.89099e-12
4.12657e-12
3.47968e-12
2.93257e-12
2.47011e-12
2.07943e-12
1.74957e-12
1.47122e-12
1.23646e-12
1.0386e-12
8.7191e-13
7.31571e-13
6.13482e-13
5.1417e-13
4.30697e-13
3.60577e-13
3.01706e-13
2.52309e-13
2.10882e-13
1.76161e-13
1.47075e-13
1.22725e-13
1.02349e-13
8.53099e-14
7.10684e-14
5.91718e-14
4.92397e-14
4.09523e-14
3.40411e-14
2.82807e-14
2.34823e-14
1.94874e-14
1.61633e-14
1.33989e-14
1.11012e-14
9.19255e-15
7.60791e-15
6.293e-15
5.20253e-15
4.29868e-15
3.54993e-15
2.93e-15
2.41703e-15
1.99278e-15
1.64211e-15
1.35241e-15
1.11322e-15
9.15841e-16
7.53049e-16
6.18859e-16
5.08307e-16
4.17278e-16
3.42367e-16
2.80753e-16
2.30103e-16
1.8849e-16
1.54319e-16
1.26275e-16
1.03272e-16
8.44141e-17
6.89628e-17
5.63095e-17
4.59533e-17
3.74816e-17
3.05555e-17
2.48959e-17
2.02737e-17
1.65009e-17
1.34231e-17
1.09135e-17
8.86839e-18
7.2027e-18
5.84675e-18
4.74354e-18
3.84646e-18
3.11737e-18
2.52515e-18
2.04435e-18
1.65422e-18
1.33783e-18
1.08138e-18
8.73633e-19
7.05422e-19
5.69299e-19
4.59202e-19
3.70201e-19
2.98293e-19
2.40226e-19
1.93361e-19
1.55557e-19
1.25079e-19
1.00519e-19
8.07399e-20
6.48185e-20
5.20096e-20
4.171e-20
3.34327e-20
2.67839e-20
2.14463e-20
1.71634e-20
1.37287e-20
1.09756e-20
8.77003e-21
7.00405e-21
5.59077e-21
4.46035e-21
3.55665e-21
2.83458e-21
2.25794e-21
1.79767e-21
1.43049e-21
1.13772e-21
9.044e-22
7.1856e-22
5.70613e-22
4.52894e-22
3.59276e-22
2.84864e-22
2.25748e-22
1.78808e-22
1.41556e-22
1.12007e-22
8.85813e-23
7.00191e-23
5.53183e-23
4.36817e-23
3.44754e-23
2.71955e-23
2.14419e-23
1.6897e-23
1.33087e-23
1.04771e-23
8.24372e-24
6.48317e-24
5.09602e-24
4.00364e-24
3.14384e-24
2.46743e-24
1.93558e-24
1.5176e-24
1.18928e-24
9.31523e-25
7.29262e-25
5.70631e-25
4.46282e-25
3.48855e-25
2.7256e-25
2.12845e-25
1.66129e-25
1.29602e-25
1.01055e-25
7.87574e-26
6.13489e-26
4.77647e-26
3.71699e-26
2.89109e-26
2.2476e-26
1.74649e-26
1.35646e-26
1.05305e-26
8.17154e-27
6.33853e-27
4.91514e-27
3.81065e-27
2.95438e-27
2.29134e-27
1.77877e-27
1.38348e-27
1.0798e-27
8.47928e-28
6.72691e-28
5.4259e-28
4.49063e-28
3.85941e-28
3.49051e-28
3.35952e-28
)
;

boundaryField
{
    sides
    {
        type            zeroGradient;
    }
    empty
    {
        type            empty;
    }
}


// ************************************************************************* //
