/*--------------------------------*- C++ -*----------------------------------*\
| =========                 |                                                 |
| \\      /  F ield         | OpenFOAM: The Open Source CFD Toolbox           |
|  \\    /   O peration     | Version:  2312                                  |
|   \\  /    A nd           | Website:  www.openfoam.com                      |
|    \\/     M anipulation  |                                                 |
\*---------------------------------------------------------------------------*/
FoamFile
{
    version     2.0;
    format      ascii;
    arch        "LSB;label=32;scalar=64";
    class       volScalarField;
    location    "0.8";
    object      T;
}
// * * * * * * * * * * * * * * * * * * * * * * * * * * * * * * * * * * * * * //

dimensions      [0 0 0 1 0 0 0];

internalField   nonuniform List<scalar> 
1000
(
0
0
0
0
0
0
0
0
0
0
0
0
0
0
0
0
0
0
0
0
0
0
0
0
0
0
0
0
0
0
0
0
0
0
0
0
0
0
0
0
0
0
0
0
0
0
0
0
0
0
0
0
0
0
0
0
0
0
0
0
0
0
0
0
0
0
0
0
0
0
0
0
0
0
0
0
0
0
0
0
0
0
0
0
0
0
0
0
0
0
0
0
0
0
0
0
0
0
0
0
0
0
0
0
0
0
0
0
0
0
0
0
0
0
0
0
0
0
0
0
0
0
0
0
0
0
0
0
0
0
0
0
0
0
0
0
0
0
0
0
0
0
0
0
0
0
0
0
0
0
0
0
0
0
0
0
0
0
0
0
0
0
0
0
0
0
0
0
0
0
0
0
0
0
0
0
0
0
0
0
0
0
0
0
0
0
0
0
0
0
0
0
0
0
0
0
0
0
0
0
0
0
0
0
0
0
0
0
0
0
0
0
0
0
0
0
0
0
0
0
0
0
0
0
0
0
0
0
0
0
0
0
0
0
0
0
0
0
0
0
0
0
0
0
0
0
0
0
0
0
0
0
0
0
0
0
0
0
0
0
0
0
0
0
0
0
0
0
0
0
0
0
0
0
0
0
0
0
0
0
0
0
0
0
0
0
0
0
0
0
0
0
0
0
0
0
0
0
0
0
0
0
0
0
0
0
0
0
0
0
0
0
0
0
0
0
0
0
0
0
0
0
0
0
0
0
0
0
0
0
0
0
0
0
0
0
0
0
0
0
0
0
0
0
0
0
0
0
0
0
0
0
0
0
0
0
0
0
0
0
0
0
0
0
0
0
0
0
0
0
0
0
0
0
0
0
0
0
0
0
0
0
0
0
0
0
0
0
0
0
0
0
0
0
0
0
0
0
0
0
0
0
0
0
7.1083e-54
-4.77177e-38
2.86727e-30
-1.70398e-26
7.63754e-25
8.2966e-24
3.27019e-23
8.03752e-23
6.53433e-23
-2.6297e-21
-2.43415e-20
-8.07927e-20
2.57337e-20
9.00976e-19
9.58104e-19
-1.4252e-17
-6.67207e-17
3.00222e-17
7.18581e-16
-3.73134e-16
-3.53651e-15
5.25563e-15
5.25307e-15
-2.16104e-14
1.17967e-14
4.56755e-14
-8.59299e-14
-2.00984e-14
2.4382e-13
-2.09775e-13
-4.15547e-13
9.48291e-13
1.72071e-13
-2.53223e-12
1.80082e-12
4.78018e-12
-8.11803e-12
-6.0904e-12
2.36978e-11
7.71915e-13
-5.96185e-11
3.16015e-11
1.26781e-10
-1.28988e-10
-2.51437e-10
3.962e-10
4.73651e-10
-1.03107e-09
-9.61095e-10
2.56837e-09
1.95994e-09
-5.84672e-09
-4.7172e-09
1.32421e-08
1.20336e-08
-2.87161e-08
-3.23512e-08
5.5307e-08
8.93255e-08
-8.97847e-08
-2.32261e-07
8.81513e-08
5.5579e-07
9.91533e-08
-1.14556e-06
-9.19889e-07
1.83653e-06
3.23348e-06
-1.25365e-06
-7.88558e-06
-4.35217e-06
1.26852e-05
2.07156e-05
-4.29787e-06
-4.75466e-05
-4.33798e-05
4.35553e-05
0.000141543
9.29761e-05
-0.000162675
-0.000400433
-0.000248106
0.000421642
0.00112989
0.000922
-0.000663894
-0.00294411
-0.00360096
-0.000973598
0.00513139
0.0115791
0.0119377
0.00304767
-0.0165361
-0.0407315
-0.0550976
-0.0467514
-0.00617175
0.0730561
0.188409
0.328996
0.478971
0.622058
0.745499
0.842266
0.9112
0.955608
0.981169
0.993968
0.999126
1
1
1
1
1
1
1
1
1
1
1
1
1
1
1
1
1
1
1
1
1
1
1
1
1
1
1
1
1
1
1
1
1
1
1
1
1
1
1
1
1
1
1
1
1
1
1
1
1
1
1
1
0.999999
1
1
1
0.999998
0.999997
1
1.00001
1
0.999987
0.999979
1
1.00005
1.00004
0.999956
0.999857
0.999907
1.00016
1.0004
1.00025
0.999579
0.998869
0.999076
1.00066
1.00294
1.0036
1.00097
0.994868
0.988427
0.988075
0.996973
1.01656
1.04074
1.05507
1.04668
1.00605
0.926769
0.811387
0.670798
0.520845
0.377796
0.254397
0.15767
0.0887654
0.0443762
0.0188268
0.00603137
0.000874758
2.54442e-08
1.61785e-09
1.02749e-10
6.51897e-12
4.12275e-13
2.77013e-14
8.68144e-16
3.05881e-16
2.39312e-16
1.66167e-16
1.13834e-16
8.12053e-17
6.03578e-17
4.57971e-17
3.48589e-17
2.63714e-17
1.97528e-17
1.46296e-17
1.07105e-17
7.75122e-18
5.54625e-18
3.92468e-18
2.74732e-18
1.90303e-18
1.30479e-18
8.85777e-19
5.9554e-19
3.96653e-19
2.61771e-19
1.7121e-19
1.10998e-19
7.13419e-20
4.54651e-20
2.87321e-20
1.80076e-20
1.11939e-20
6.90204e-21
4.22151e-21
2.56138e-21
1.54176e-21
9.20676e-22
5.45456e-22
3.20616e-22
1.86979e-22
1.08191e-22
6.21133e-23
3.53823e-23
1.99988e-23
1.12162e-23
6.24196e-24
3.44701e-24
1.88895e-24
1.02723e-24
5.54374e-25
2.96916e-25
1.57826e-25
8.32638e-26
4.35994e-26
2.26606e-26
1.16908e-26
5.9872e-27
3.04386e-27
1.53627e-27
7.69797e-28
3.82972e-28
1.89175e-28
9.27868e-29
4.51914e-29
2.18572e-29
1.04984e-29
5.00798e-30
2.37267e-30
1.11652e-30
5.21882e-31
2.42313e-31
1.11764e-31
5.12116e-32
2.3313e-32
1.05442e-32
4.73841e-33
2.11582e-33
9.38803e-34
4.13941e-34
1.81381e-34
7.8987e-35
3.41861e-35
1.4706e-35
6.288e-36
2.67252e-36
1.12912e-36
4.74229e-37
1.9801e-37
8.21968e-38
3.39243e-38
1.39211e-38
5.68018e-39
2.30459e-39
9.29798e-40
3.73047e-40
1.48846e-40
5.90643e-41
2.33103e-41
9.14997e-42
3.5724e-42
1.38734e-42
5.35932e-43
2.05946e-43
7.87282e-44
2.99404e-44
1.13279e-44
4.26409e-45
1.59698e-45
5.95093e-46
2.20647e-46
8.14058e-47
2.98862e-47
1.09184e-47
3.96947e-48
1.43618e-48
5.17131e-49
1.8532e-49
6.60981e-50
2.34646e-50
8.29101e-51
2.916e-51
1.02086e-51
3.55756e-52
1.23414e-52
4.262e-53
1.46525e-53
5.01503e-54
1.70887e-54
5.79737e-55
1.95818e-55
6.58544e-56
2.20516e-56
7.35241e-57
2.44099e-57
8.06976e-58
2.65659e-58
8.70901e-59
2.84318e-59
9.24365e-60
2.99293e-60
9.65102e-61
3.09946e-61
9.9139e-62
3.15834e-62
1.00217e-62
3.16737e-63
9.97114e-64
3.12671e-64
9.76649e-65
3.03883e-65
9.4189e-66
2.90825e-66
8.94558e-67
2.7412e-67
8.36834e-68
2.54514e-68
7.71201e-69
2.32818e-69
7.00272e-70
2.09859e-70
6.26627e-71
1.86431e-71
5.52668e-72
1.63251e-72
4.8051e-73
1.40933e-73
4.119e-74
1.19964e-74
3.48175e-75
1.00703e-75
2.9026e-76
8.3377e-77
2.38685e-77
6.80974e-78
1.9363e-78
5.48728e-79
1.54986e-79
4.36301e-80
1.22418e-80
3.42358e-81
9.5432e-82
2.65153e-82
7.34335e-83
2.02719e-83
5.57833e-84
1.53014e-84
4.1839e-85
1.14042e-85
3.09872e-86
8.39355e-87
2.26652e-87
6.10145e-88
1.63746e-88
4.38106e-89
1.1686e-89
3.10768e-90
8.23944e-91
2.17799e-91
5.74008e-92
1.50831e-92
3.95165e-93
1.03226e-93
2.6886e-94
6.98232e-95
1.80806e-95
4.66845e-96
1.20195e-96
3.08572e-97
7.89934e-98
2.01649e-98
5.13305e-99
1.30298e-99
3.29827e-100
8.32585e-101
2.09589e-101
5.26153e-102
1.31724e-102
3.28877e-103
8.18883e-104
2.03346e-104
5.03594e-105
1.24383e-105
3.06396e-106
7.52753e-107
1.84448e-107
4.50766e-108
1.09873e-108
2.67115e-109
6.47706e-110
1.56651e-110
3.77896e-111
9.0928e-112
2.1823e-112
5.22431e-113
1.24751e-113
2.97143e-114
7.05989e-115
1.67319e-115
3.95563e-116
9.32844e-117
2.19448e-117
5.14979e-118
1.20555e-118
2.8153e-119
6.55861e-120
1.52423e-120
3.53384e-121
8.17341e-122
1.88593e-122
4.34127e-123
9.96969e-124
2.28415e-124
5.22097e-125
1.19059e-125
2.70873e-126
6.14843e-127
1.39239e-127
3.14601e-128
7.09198e-129
1.59509e-129
3.57948e-130
8.01442e-131
1.79039e-131
3.99071e-132
8.87531e-133
1.96948e-133
4.36073e-134
9.63405e-135
2.12376e-135
4.67144e-136
1.0253e-136
2.24547e-137
4.90711e-138
1.07006e-138
2.32842e-139
5.05574e-140
1.09543e-140
2.36845e-141
5.11006e-142
1.10021e-142
2.36382e-143
5.06811e-144
1.08436e-144
2.31528e-145
4.9333e-146
1.04901e-146
2.22602e-147
4.71406e-148
9.96271e-149
2.10126e-149
4.42291e-150
9.291e-151
1.94781e-151
4.07536e-152
8.50985e-153
1.77344e-153
3.68856e-154
7.65672e-155
1.58627e-155
3.27994e-156
6.76878e-157
1.39416e-157
2.86602e-158
5.88043e-159
1.20423e-159
2.46137e-160
5.02136e-161
1.02245e-161
2.07799e-162
4.21529e-163
8.53488e-164
1.72487e-164
3.47942e-165
7.00572e-166
1.40798e-166
2.82448e-167
5.65569e-168
1.13041e-168
2.25527e-169
4.4913e-170
8.9281e-171
1.77159e-171
3.50904e-172
6.938e-173
1.36932e-173
2.69778e-174
5.30563e-175
1.0416e-175
2.04127e-176
3.99336e-177
7.79861e-178
1.52034e-178
2.95876e-179
5.74814e-180
1.1148e-180
2.15834e-181
4.17158e-182
8.04896e-183
1.55039e-183
2.98129e-184
5.72316e-185
1.09682e-185
2.09849e-186
4.00822e-187
7.64316e-188
1.45503e-188
2.76537e-189
5.24708e-190
9.93958e-191
1.87978e-191
3.54923e-192
6.69046e-193
1.25914e-193
2.36584e-194
4.43813e-195
8.31218e-196
1.5543e-196
2.90175e-197
5.40873e-198
1.00656e-198
1.87025e-199
3.46956e-200
6.42638e-201
1.18844e-201
2.19438e-202
4.04548e-203
7.44653e-204
1.36857e-204
2.51136e-205
4.60135e-206
8.41774e-207
1.5376e-207
2.80433e-208
5.10689e-209
9.28595e-210
1.68594e-210
3.05636e-211
5.53244e-212
9.99953e-213
1.80466e-213
3.25213e-214
5.8519e-215
)
;

boundaryField
{
    sides
    {
        type            zeroGradient;
    }
    empty
    {
        type            empty;
    }
}


// ************************************************************************* //
