/*--------------------------------*- C++ -*----------------------------------*\
| =========                 |                                                 |
| \\      /  F ield         | OpenFOAM: The Open Source CFD Toolbox           |
|  \\    /   O peration     | Version:  2312                                  |
|   \\  /    A nd           | Website:  www.openfoam.com                      |
|    \\/     M anipulation  |                                                 |
\*---------------------------------------------------------------------------*/
FoamFile
{
    version     2.0;
    format      ascii;
    arch        "LSB;label=32;scalar=64";
    class       volScalarField;
    location    "4";
    object      T;
}
// * * * * * * * * * * * * * * * * * * * * * * * * * * * * * * * * * * * * * //

dimensions      [0 0 0 1 0 0 0];

internalField   nonuniform List<scalar> 
1000
(
5.09659e-07
5.10606e-07
5.13213e-07
5.17486e-07
5.23439e-07
5.31086e-07
5.40449e-07
5.51555e-07
5.64433e-07
5.79119e-07
5.95653e-07
6.14082e-07
6.34454e-07
6.56826e-07
6.81258e-07
7.07818e-07
7.36577e-07
7.67613e-07
8.0101e-07
8.36858e-07
8.75252e-07
9.16297e-07
9.60101e-07
1.00678e-06
1.05646e-06
1.10927e-06
1.16535e-06
1.22485e-06
1.28792e-06
1.35472e-06
1.42544e-06
1.50025e-06
1.57934e-06
1.66292e-06
1.7512e-06
1.84441e-06
1.94277e-06
2.04655e-06
2.15599e-06
2.27137e-06
2.39298e-06
2.52112e-06
2.6561e-06
2.79826e-06
2.94793e-06
3.10549e-06
3.27131e-06
3.44579e-06
3.62936e-06
3.82243e-06
4.02548e-06
4.23897e-06
4.46342e-06
4.69934e-06
4.94727e-06
5.2078e-06
5.48152e-06
5.76904e-06
6.07104e-06
6.38818e-06
6.72118e-06
7.07078e-06
7.43777e-06
7.82294e-06
8.22716e-06
8.65129e-06
9.09627e-06
9.56306e-06
1.00527e-05
1.05661e-05
1.11045e-05
1.1669e-05
1.22608e-05
1.28811e-05
1.35312e-05
1.42124e-05
1.49262e-05
1.5674e-05
1.64573e-05
1.72778e-05
1.8137e-05
1.90367e-05
1.99787e-05
2.09648e-05
2.1997e-05
2.30773e-05
2.42077e-05
2.53905e-05
2.6628e-05
2.79225e-05
2.92764e-05
3.06923e-05
3.21729e-05
3.37209e-05
3.53392e-05
3.70307e-05
3.87987e-05
4.06461e-05
4.25766e-05
4.45933e-05
4.67001e-05
4.89006e-05
5.11987e-05
5.35984e-05
5.6104e-05
5.87197e-05
6.145e-05
6.42997e-05
6.72735e-05
7.03765e-05
7.36139e-05
7.69911e-05
8.05136e-05
8.41873e-05
8.80182e-05
9.20125e-05
9.61766e-05
0.000100517
0.000105041
0.000109756
0.000114669
0.000119787
0.000125119
0.000130673
0.000136457
0.00014248
0.000148752
0.000155281
0.000162077
0.000169151
0.000176513
0.000184173
0.000192143
0.000200435
0.000209059
0.000218028
0.000227356
0.000237054
0.000247137
0.000257618
0.000268511
0.000279833
0.000291597
0.00030382
0.000316517
0.000329706
0.000343405
0.00035763
0.0003724
0.000387735
0.000403653
0.000420175
0.000437321
0.000455114
0.000473574
0.000492725
0.00051259
0.000533193
0.000554559
0.000576712
0.00059968
0.000623488
0.000648166
0.000673741
0.000700242
0.0007277
0.000756145
0.000785609
0.000816126
0.000847727
0.000880449
0.000914326
0.000949394
0.000985691
0.00102326
0.00106213
0.00110234
0.00114395
0.00118699
0.0012315
0.00127753
0.00132512
0.00137432
0.00142519
0.00147776
0.00153209
0.00158823
0.00164624
0.00170616
0.00176806
0.00183199
0.00189801
0.00196617
0.00203654
0.00210919
0.00218416
0.00226154
0.00234139
0.00242376
0.00250875
0.0025964
0.00268681
0.00278004
0.00287616
0.00297526
0.00307741
0.0031827
0.0032912
0.003403
0.00351819
0.00363685
0.00375908
0.00388495
0.00401457
0.00414803
0.00428543
0.00442685
0.00457241
0.00472221
0.00487634
0.00503491
0.00519803
0.0053658
0.00553835
0.00571578
0.00589819
0.00608573
0.00627848
0.00647659
0.00668017
0.00688935
0.00710424
0.00732498
0.0075517
0.00778453
0.0080236
0.00826905
0.00852101
0.00877963
0.00904504
0.00931738
0.00959681
0.00988347
0.0101775
0.0104791
0.0107883
0.0111054
0.0114304
0.0117636
0.0121052
0.0124551
0.0128137
0.0131811
0.0135575
0.013943
0.0143377
0.014742
0.0151558
0.0155795
0.0160132
0.016457
0.0169111
0.0173758
0.0178512
0.0183374
0.0188347
0.0193433
0.0198632
0.0203948
0.0209382
0.0214936
0.0220611
0.022641
0.0232334
0.0238386
0.0244568
0.025088
0.0257326
0.0263906
0.0270624
0.027748
0.0284478
0.0291618
0.0298902
0.0306333
0.0313913
0.0321643
0.0329525
0.0337562
0.0345754
0.0354104
0.0362615
0.0371286
0.0380122
0.0389122
0.039829
0.0407627
0.0417134
0.0426814
0.0436669
0.0446699
0.0456907
0.0467294
0.0477863
0.0488614
0.049955
0.0510671
0.052198
0.0533478
0.0545167
0.0557047
0.0569121
0.058139
0.0593855
0.0606518
0.0619379
0.063244
0.0645702
0.0659167
0.0672836
0.0686708
0.0700787
0.0715072
0.0729564
0.0744265
0.0759174
0.0774294
0.0789624
0.0805165
0.0820918
0.0836883
0.0853061
0.0869452
0.0886056
0.0902874
0.0919906
0.0937152
0.0954611
0.0972285
0.0990173
0.100827
0.102659
0.104512
0.106386
0.108281
0.110197
0.112135
0.114093
0.116073
0.118073
0.120094
0.122136
0.124198
0.126281
0.128384
0.130507
0.13265
0.134813
0.136995
0.139197
0.141418
0.143658
0.145917
0.148195
0.150491
0.152805
0.155137
0.157487
0.159854
0.162239
0.16464
0.167057
0.169491
0.171941
0.174406
0.176886
0.179382
0.181892
0.184416
0.186953
0.189504
0.192069
0.194645
0.197234
0.199835
0.202446
0.205069
0.207702
0.210345
0.212997
0.215659
0.218329
0.221006
0.223692
0.226384
0.229083
0.231787
0.234497
0.237211
0.23993
0.242653
0.245378
0.248106
0.250836
0.253567
0.256299
0.259031
0.261763
0.264493
0.267222
0.269948
0.272671
0.275391
0.278106
0.280816
0.28352
0.286218
0.288909
0.291592
0.294267
0.296933
0.299589
0.302235
0.30487
0.307492
0.310103
0.3127
0.315283
0.317852
0.320405
0.322943
0.325464
0.327967
0.330453
0.332919
0.335366
0.337793
0.3402
0.342584
0.344947
0.347286
0.349602
0.351894
0.35416
0.356402
0.358616
0.360804
0.362964
0.365097
0.3672
0.369273
0.371317
0.373329
0.375311
0.37726
0.379177
0.38106
0.38291
0.384725
0.386505
0.38825
0.389958
0.39163
0.393265
0.394863
0.396422
0.397942
0.399423
0.400865
0.402266
0.403627
0.404947
0.406226
0.407462
0.408657
0.409808
0.410917
0.411982
0.413004
0.413981
0.414914
0.415803
0.416646
0.417444
0.418196
0.418903
0.419564
0.420178
0.420746
0.421267
0.421742
0.422169
0.42255
0.422883
0.423168
0.423406
0.423597
0.42374
0.423836
0.423883
0.423883
0.423836
0.42374
0.423597
0.423406
0.423168
0.422883
0.42255
0.422169
0.421742
0.421267
0.420746
0.420178
0.419564
0.418903
0.418196
0.417444
0.416646
0.415803
0.414914
0.413981
0.413004
0.411982
0.410917
0.409808
0.408657
0.407462
0.406226
0.404947
0.403627
0.402266
0.400865
0.399423
0.397942
0.396422
0.394863
0.393265
0.39163
0.389958
0.38825
0.386505
0.384725
0.38291
0.38106
0.379177
0.37726
0.375311
0.373329
0.371317
0.369273
0.3672
0.365097
0.362964
0.360804
0.358616
0.356402
0.35416
0.351894
0.349602
0.347286
0.344947
0.342584
0.3402
0.337793
0.335366
0.332919
0.330453
0.327967
0.325464
0.322943
0.320405
0.317852
0.315283
0.3127
0.310103
0.307492
0.30487
0.302235
0.299589
0.296933
0.294267
0.291592
0.288909
0.286218
0.28352
0.280816
0.278106
0.275391
0.272671
0.269948
0.267222
0.264493
0.261763
0.259031
0.256299
0.253567
0.250836
0.248106
0.245378
0.242653
0.23993
0.237211
0.234497
0.231787
0.229083
0.226384
0.223692
0.221006
0.218329
0.215659
0.212997
0.210345
0.207702
0.205069
0.202446
0.199835
0.197234
0.194645
0.192069
0.189504
0.186953
0.184416
0.181892
0.179382
0.176886
0.174406
0.171941
0.169491
0.167057
0.16464
0.162239
0.159854
0.157487
0.155137
0.152805
0.150491
0.148195
0.145917
0.143658
0.141418
0.139197
0.136995
0.134813
0.13265
0.130507
0.128384
0.126281
0.124198
0.122136
0.120094
0.118073
0.116073
0.114093
0.112135
0.110197
0.108281
0.106386
0.104512
0.102659
0.100827
0.0990173
0.0972285
0.0954611
0.0937152
0.0919906
0.0902874
0.0886056
0.0869452
0.0853061
0.0836883
0.0820918
0.0805165
0.0789624
0.0774294
0.0759174
0.0744265
0.0729564
0.0715072
0.0700787
0.0686708
0.0672836
0.0659167
0.0645702
0.063244
0.0619379
0.0606518
0.0593855
0.058139
0.0569121
0.0557047
0.0545167
0.0533478
0.052198
0.0510671
0.049955
0.0488614
0.0477863
0.0467294
0.0456907
0.0446699
0.0436669
0.0426814
0.0417134
0.0407627
0.039829
0.0389122
0.0380122
0.0371286
0.0362615
0.0354104
0.0345754
0.0337562
0.0329525
0.0321643
0.0313913
0.0306333
0.0298902
0.0291618
0.0284478
0.027748
0.0270624
0.0263906
0.0257326
0.025088
0.0244568
0.0238386
0.0232334
0.022641
0.0220611
0.0214936
0.0209382
0.0203948
0.0198632
0.0193433
0.0188347
0.0183374
0.0178512
0.0173758
0.0169111
0.016457
0.0160132
0.0155795
0.0151558
0.014742
0.0143377
0.013943
0.0135575
0.0131811
0.0128137
0.0124551
0.0121052
0.0117636
0.0114304
0.0111054
0.0107883
0.0104791
0.0101775
0.00988347
0.00959681
0.00931738
0.00904504
0.00877963
0.00852101
0.00826905
0.0080236
0.00778453
0.0075517
0.00732498
0.00710424
0.00688935
0.00668017
0.00647659
0.00627848
0.00608573
0.00589819
0.00571578
0.00553835
0.0053658
0.00519803
0.00503491
0.00487634
0.00472221
0.00457241
0.00442685
0.00428543
0.00414803
0.00401457
0.00388495
0.00375908
0.00363685
0.00351819
0.003403
0.0032912
0.0031827
0.00307741
0.00297526
0.00287616
0.00278004
0.00268681
0.0025964
0.00250875
0.00242376
0.00234139
0.00226154
0.00218416
0.00210919
0.00203654
0.00196617
0.00189801
0.00183199
0.00176806
0.00170616
0.00164624
0.00158823
0.00153209
0.00147776
0.00142519
0.00137432
0.00132512
0.00127753
0.0012315
0.00118699
0.00114395
0.00110234
0.00106213
0.00102326
0.000985691
0.000949394
0.000914326
0.000880449
0.000847727
0.000816126
0.000785609
0.000756145
0.0007277
0.000700242
0.000673741
0.000648166
0.000623488
0.00059968
0.000576712
0.000554559
0.000533193
0.00051259
0.000492725
0.000473574
0.000455114
0.000437321
0.000420175
0.000403653
0.000387735
0.0003724
0.00035763
0.000343405
0.000329706
0.000316517
0.00030382
0.000291597
0.000279833
0.000268511
0.000257618
0.000247137
0.000237054
0.000227356
0.000218028
0.000209059
0.000200435
0.000192143
0.000184173
0.000176513
0.000169151
0.000162077
0.000155281
0.000148752
0.00014248
0.000136457
0.000130673
0.000125119
0.000119787
0.000114669
0.000109756
0.000105041
0.000100517
9.61766e-05
9.20125e-05
8.80182e-05
8.41873e-05
8.05136e-05
7.69911e-05
7.36139e-05
7.03765e-05
6.72735e-05
6.42997e-05
6.145e-05
5.87197e-05
5.6104e-05
5.35984e-05
5.11987e-05
4.89006e-05
4.67001e-05
4.45933e-05
4.25766e-05
4.06461e-05
3.87987e-05
3.70307e-05
3.53392e-05
3.37209e-05
3.21729e-05
3.06923e-05
2.92764e-05
2.79225e-05
2.6628e-05
2.53905e-05
2.42077e-05
2.30773e-05
2.1997e-05
2.09648e-05
1.99787e-05
1.90367e-05
1.8137e-05
1.72778e-05
1.64573e-05
1.5674e-05
1.49262e-05
1.42124e-05
1.35312e-05
1.28811e-05
1.22608e-05
1.1669e-05
1.11045e-05
1.05661e-05
1.00527e-05
9.56306e-06
9.09627e-06
8.65129e-06
8.22716e-06
7.82294e-06
7.43777e-06
7.07078e-06
6.72118e-06
6.38818e-06
6.07104e-06
5.76904e-06
5.48152e-06
5.2078e-06
4.94727e-06
4.69934e-06
4.46342e-06
4.23897e-06
4.02548e-06
3.82243e-06
3.62936e-06
3.44579e-06
3.27131e-06
3.10549e-06
2.94793e-06
2.79826e-06
2.6561e-06
2.52112e-06
2.39298e-06
2.27137e-06
2.15599e-06
2.04655e-06
1.94277e-06
1.84441e-06
1.7512e-06
1.66292e-06
1.57934e-06
1.50025e-06
1.42544e-06
1.35472e-06
1.28792e-06
1.22485e-06
1.16535e-06
1.10927e-06
1.05646e-06
1.00678e-06
9.60101e-07
9.16297e-07
8.75252e-07
8.36858e-07
8.0101e-07
7.67613e-07
7.36577e-07
7.07818e-07
6.81258e-07
6.56826e-07
6.34454e-07
6.14082e-07
5.95653e-07
5.79119e-07
5.64433e-07
5.51555e-07
5.40449e-07
5.31086e-07
5.23439e-07
5.17486e-07
5.13213e-07
5.10606e-07
5.09659e-07
)
;

boundaryField
{
    sides
    {
        type            zeroGradient;
    }
    empty
    {
        type            empty;
    }
}


// ************************************************************************* //
