/*--------------------------------*- C++ -*----------------------------------*\
| =========                 |                                                 |
| \\      /  F ield         | OpenFOAM: The Open Source CFD Toolbox           |
|  \\    /   O peration     | Version:  2312                                  |
|   \\  /    A nd           | Website:  www.openfoam.com                      |
|    \\/     M anipulation  |                                                 |
\*---------------------------------------------------------------------------*/
FoamFile
{
    version     2.0;
    format      ascii;
    arch        "LSB;label=32;scalar=64";
    class       volScalarField;
    location    "4";
    object      T;
}
// * * * * * * * * * * * * * * * * * * * * * * * * * * * * * * * * * * * * * //

dimensions      [0 0 0 1 0 0 0];

internalField   nonuniform List<scalar> 
1000
(
0
0
0
0
0
0
0
0
0
0
0
0
0
0
0
0
0
0
0
0
0
0
0
0
0
0
0
0
0
0
0
0
0
0
0
0
0
0
0
0
0
0
0
0
0
0
0
0
0
0
0
0
0
0
0
0
0
0
0
0
0
0
0
0
0
0
0
0
0
0
0
0
0
0
0
0
0
0
0
0
0
0
0
0
0
0
0
0
0
0
0
0
0
0
0
0
0
0
0
0
0
0
0
0
0
0
0
0
0
0
0
0
0
0
0
0
0
0
0
0
0
0
0
0
0
0
0
0
0
0
0
0
0
0
0
0
0
0
0
0
0
0
0
0
0
0
0
0
0
0
0
0
0
0
0
0
0
0
0
0
0
0
0
0
0
0
0
0
0
0
0
0
0
0
0
0
0
0
0
0
0
0
0
0
0
0
0
0
0
0
0
0
0
0
0
0
0
0
0
0
0
0
0
0
0
0
0
0
0
0
0
0
0
0
0
0
0
0
0
0
0
0
0
0
0
0
0
0
0
0
0
0
0
0
0
0
0
0
0
0
0
0
0
0
0
0
0
0
0
0
0
0
0
0
0
0
0
0
0
0
0
0
0
0
0
0
0
0
0
0
0
0
0
0
0
0
0
0
0
0
0
0
0
0
0
0
0
0
0
0
0
0
0
0
0
0
0
0
0
0
0
0
0
0
0
0
0
0
0
0
0
0
0
0
0
0
0
0
0
0
0
0
0
0
0
0
0
0
0
0
0
0
0
0
0
0
0
0
0
0
0
0
0
0
0
0
0
0
0
0
0
0
0
0
0
0
0
0
0
0
0
0
0
0
0
0
0
0
0
0
0
0
0
0
0
0
0
0
0
0
0
0
0
0
0
0
0
0
0
0
0
0
0
0
0
0
0
0
0
0
0
0
0
0
2.98052e-145
-2.00081e-129
1.20225e-121
-6.90001e-118
-1.10977e-115
-7.78008e-114
-2.61462e-112
1.67461e-111
7.38533e-109
4.99711e-107
2.24488e-105
7.90875e-104
2.32952e-102
5.93791e-101
1.3389e-99
2.71228e-98
4.99381e-97
8.43333e-96
1.31594e-94
1.90895e-93
2.58769e-92
3.29233e-91
3.94661e-90
4.47221e-89
4.80476e-88
4.90684e-87
4.77438e-86
4.4352e-85
3.94091e-84
3.35495e-83
2.7405e-82
2.15083e-81
1.6238e-80
1.18049e-79
8.27184e-79
5.59099e-78
3.6476e-77
2.29814e-76
1.39877e-75
8.22587e-75
4.67364e-74
2.56452e-73
1.35803e-72
6.93116e-72
3.4025e-71
1.60126e-70
7.18636e-70
3.04859e-69
1.20308e-68
4.27459e-68
1.25711e-67
2.10673e-67
-8.10981e-67
-1.18336e-65
-8.91271e-65
-5.48987e-64
-3.0396e-63
-1.56854e-62
-7.68008e-62
-3.60465e-61
-1.63225e-60
-7.16188e-60
-3.05448e-59
-1.26918e-58
-5.14703e-58
-2.04011e-57
-7.91251e-57
-3.00576e-56
-1.11925e-55
-4.08822e-55
-1.46571e-54
-5.16072e-54
-1.78541e-53
-6.07203e-53
-2.03091e-52
-6.68323e-52
-2.1647e-51
-6.90384e-51
-2.16887e-50
-6.71404e-50
-2.04882e-49
-6.16518e-49
-1.83006e-48
-5.3605e-48
-1.54993e-47
-4.42501e-47
-1.24778e-46
-3.47617e-46
-9.5697e-46
-2.60386e-45
-7.00377e-45
-1.86248e-44
-4.89707e-44
-1.27317e-43
-3.27301e-43
-8.31977e-43
-2.09102e-42
-5.19592e-42
-1.2764e-41
-3.09957e-41
-7.43995e-41
-1.76509e-40
-4.1388e-40
-9.59164e-40
-2.19704e-39
-4.97453e-39
-1.11353e-38
-2.46479e-38
-5.39661e-38
-1.1692e-37
-2.50771e-37
-5.32742e-37
-1.12166e-36
-2.34193e-36
-4.85203e-36
-9.98054e-36
-2.03926e-35
-4.14018e-35
-8.35319e-35
-1.67465e-34
-3.33478e-34
-6.59174e-34
-1.29215e-33
-2.50896e-33
-4.81854e-33
-9.13825e-33
-1.70814e-32
-3.14036e-32
-5.66486e-32
-9.99846e-32
-1.72082e-31
-2.87551e-31
-4.63801e-31
-7.15969e-31
-1.04358e-30
-1.40167e-30
-1.64554e-30
-1.43517e-30
-8.65172e-32
3.63068e-30
1.17102e-29
2.70152e-29
5.29696e-29
9.22294e-29
1.43248e-28
1.93019e-28
2.03646e-28
9.02151e-29
-3.11168e-28
-1.28115e-27
-3.24392e-27
-6.73943e-27
-1.22472e-26
-1.9682e-26
-2.72474e-26
-2.91416e-26
-1.1372e-26
5.53028e-26
2.26399e-25
5.99536e-25
1.33484e-24
2.67717e-24
4.97237e-24
8.66137e-24
1.42229e-23
2.20176e-23
3.19663e-23
4.29767e-23
5.20316e-23
5.28886e-23
3.44554e-23
-2.08492e-23
-1.37991e-22
-3.47991e-22
-6.81837e-22
-1.15571e-21
-1.7421e-21
-2.32003e-21
-2.5975e-21
-2.00144e-21
4.62576e-22
6.36456e-21
1.79769e-20
3.82941e-20
7.08112e-20
1.18861e-19
1.84239e-19
2.64791e-19
3.50648e-19
4.1889e-19
4.26757e-19
3.04055e-19
-5.36134e-20
-7.877e-19
-2.07072e-18
-4.08422e-18
-6.9712e-18
-1.07523e-17
-1.51958e-17
-1.96377e-17
-2.27628e-17
-2.23721e-17
-1.51055e-17
3.80888e-18
4.06421e-17
1.02813e-16
1.97465e-16
3.27799e-16
4.86247e-16
6.4481e-16
7.54449e-16
7.48092e-16
2.73378e-16
-1.68173e-15
-5.40645e-15
-8.63039e-15
-6.6713e-15
8.76477e-15
3.1003e-14
3.42182e-14
-7.17205e-15
-8.29717e-14
-1.0876e-13
-8.9661e-15
2.02082e-13
3.1344e-13
9.05736e-14
-4.68217e-13
-8.55522e-13
-4.18668e-13
9.79578e-13
2.24703e-12
1.60999e-12
-1.69644e-12
-5.67522e-12
-5.46047e-12
1.73392e-12
1.31904e-11
1.67128e-11
3.33739e-12
-2.60063e-11
-4.71969e-11
-2.93274e-11
3.89353e-11
1.17811e-10
1.17781e-10
-1.05003e-11
-2.3963e-10
-3.70745e-10
-1.98461e-10
3.41289e-10
9.45498e-10
9.55932e-10
1.4539e-11
-1.74808e-09
-3.03133e-09
-2.20311e-09
1.48823e-09
6.73196e-09
9.03852e-09
4.51799e-09
-7.96017e-09
-2.30204e-08
-2.62921e-08
-9.27401e-09
3.01153e-08
7.34452e-08
7.87761e-08
2.51926e-08
-9.45387e-08
-2.25926e-07
-2.50846e-07
-1.02259e-07
2.46885e-07
6.6398e-07
8.2838e-07
4.96841e-07
-4.49777e-07
-1.77749e-06
-2.70512e-06
-2.3336e-06
-1.04231e-07
3.88544e-06
8.10384e-06
9.44262e-06
5.88916e-06
-3.95661e-06
-1.8597e-05
-3.18939e-05
-3.33771e-05
-1.84281e-05
1.78591e-05
7.04043e-05
0.000120021
0.000132742
9.0599e-05
-2.55133e-05
-0.00021111
-0.000422128
-0.000563512
-0.000536212
-0.0002743
0.000280545
0.00110226
0.00203012
0.00275382
0.00281756
0.00204584
8.41521e-05
-0.00322893
-0.00773062
-0.012833
-0.0173948
-0.0196269
-0.0182573
-0.0119691
0.00108674
0.0225005
0.0533983
0.094303
0.145043
0.204738
0.271861
0.344377
0.419927
0.496043
0.570352
0.640759
0.705579
0.763618
0.814191
0.857095
0.892541
0.92106
0.943404
0.960445
0.973089
0.982209
0.988597
0.992934
0.995784
0.997591
0.998692
0.999334
0.999688
0.999871
0.999958
0.999993
1
1
1
1
1
1
1
1
1
1
1
1
1
1
1
1
1
1
1
1
1
1
1
1
1
1
0.999999
0.999999
1
1
1
1
1
1
0.999996
0.999992
0.999991
0.999994
1
1.00002
1.00003
1.00003
1.00002
0.999982
0.99993
0.99988
0.999867
0.99991
1.00003
1.00021
1.00042
1.00056
1.00054
1.00027
0.999718
0.998897
0.997969
0.997247
0.997185
0.997958
0.999922
1.00324
1.00774
1.01284
1.01739
1.01962
1.01824
1.01194
0.998877
0.97745
0.946539
0.905622
0.854872
0.795169
0.728041
0.655524
0.579975
0.503863
0.429561
0.359163
0.294352
0.236323
0.185761
0.142866
0.107428
0.0789165
0.0565786
0.0395427
0.0269025
0.0177852
0.0113995
0.00706323
0.00421407
0.00240776
0.00130704
0.00066585
0.000311717
0.000128695
4.23089e-05
7.36692e-06
7.49468e-17
7.40208e-17
7.34096e-17
7.19871e-17
6.98222e-17
6.70496e-17
6.38056e-17
6.02157e-17
5.63922e-17
5.24338e-17
4.84255e-17
4.44393e-17
4.05347e-17
3.67598e-17
3.3152e-17
2.9739e-17
2.65402e-17
2.35677e-17
2.08272e-17
1.83191e-17
1.60394e-17
1.39809e-17
1.21337e-17
1.04857e-17
9.02387e-18
7.73418e-18
6.60232e-18
5.61401e-18
4.75526e-18
4.01263e-18
3.3734e-18
2.82563e-18
2.3583e-18
1.9613e-18
1.62546e-18
1.34251e-18
1.10507e-18
9.06602e-19
7.41346e-19
6.04259e-19
4.90958e-19
3.97653e-19
3.21087e-19
2.58475e-19
2.0745e-19
1.66006e-19
1.32454e-19
1.0538e-19
8.3603e-20
6.61407e-20
5.21815e-20
4.10564e-20
3.22164e-20
2.52127e-20
1.96799e-20
1.53215e-20
1.18978e-20
9.21583e-21
7.12055e-21
5.48804e-21
4.21945e-21
3.23624e-21
2.47618e-21
1.89012e-21
1.43936e-21
1.09354e-21
8.28882e-22
6.26828e-22
4.72945e-22
3.56029e-22
2.67411e-22
2.004e-22
1.49847e-22
1.11797e-22
8.32254e-23
6.18193e-23
4.58185e-23
3.38851e-23
2.50053e-23
1.84125e-23
1.35286e-23
9.91878e-24
7.25652e-24
5.29744e-24
3.85898e-24
2.80512e-24
2.03471e-24
1.47275e-24
1.06372e-24
7.66666e-25
5.51394e-25
3.95728e-25
2.83408e-25
2.02538e-25
1.44439e-25
1.02789e-25
7.29941e-26
5.17268e-26
3.65787e-26
2.58123e-26
1.81766e-26
1.27727e-26
8.95662e-27
6.26749e-27
4.37656e-27
3.04973e-27
2.12072e-27
1.47162e-27
1.01906e-27
7.04208e-28
4.85619e-28
3.34184e-28
2.29495e-28
1.57275e-28
1.07558e-28
7.34054e-29
4.99935e-29
3.39783e-29
2.30458e-29
1.55987e-29
1.05364e-29
7.10232e-30
4.77769e-30
3.20734e-30
2.14874e-30
1.4366e-30
9.5852e-31
6.38237e-31
4.24111e-31
2.81252e-31
1.86136e-31
1.22939e-31
8.10341e-32
5.33055e-32
3.49947e-32
2.29277e-32
1.49916e-32
9.78282e-33
6.3711e-33
4.14093e-33
2.68607e-33
1.7389e-33
1.12349e-33
7.24448e-34
4.66215e-34
2.9944e-34
1.91946e-34
1.22799e-34
)
;

boundaryField
{
    sides
    {
        type            zeroGradient;
    }
    empty
    {
        type            empty;
    }
}


// ************************************************************************* //
