/*--------------------------------*- C++ -*----------------------------------*\
| =========                 |                                                 |
| \\      /  F ield         | OpenFOAM: The Open Source CFD Toolbox           |
|  \\    /   O peration     | Version:  2312                                  |
|   \\  /    A nd           | Website:  www.openfoam.com                      |
|    \\/     M anipulation  |                                                 |
\*---------------------------------------------------------------------------*/
FoamFile
{
    version     2.0;
    format      ascii;
    arch        "LSB;label=32;scalar=64";
    class       volScalarField;
    location    "4.8";
    object      T;
}
// * * * * * * * * * * * * * * * * * * * * * * * * * * * * * * * * * * * * * //

dimensions      [0 0 0 1 0 0 0];

internalField   nonuniform List<scalar> 
1000
(
0
0
0
0
0
0
0
0
0
0
0
0
0
0
0
0
0
0
0
0
0
0
0
0
0
0
0
0
0
0
0
0
0
0
0
0
0
0
0
0
0
0
0
0
0
0
0
0
0
0
0
0
0
0
0
0
0
0
0
0
0
0
0
0
0
0
0
0
0
0
0
0
0
0
0
0
0
0
0
0
0
0
0
0
0
0
0
0
0
0
0
0
0
0
0
0
0
0
0
0
0
0
0
0
0
0
0
0
0
0
0
0
0
0
0
0
0
0
0
0
0
0
0
0
0
0
0
0
0
0
0
0
0
0
0
0
0
0
0
0
0
0
0
0
0
0
0
0
0
0
0
0
0
0
0
0
0
0
0
0
0
0
0
0
0
0
0
0
0
0
0
0
0
-4.94066e-324
2.96439e-323
-4.94066e-324
2.96439e-323
-4.94066e-324
2.96439e-323
-4.94066e-324
2.96439e-323
-4.94066e-324
2.96439e-323
-4.94066e-324
2.96439e-323
-4.94066e-324
2.96439e-323
-4.94066e-324
2.96439e-323
-4.94066e-324
2.96439e-323
-4.94066e-324
2.96439e-323
-4.94066e-324
2.96439e-323
-4.94066e-324
2.96439e-323
-4.94066e-324
2.96439e-323
-4.94066e-324
2.96439e-323
-4.94066e-324
2.96439e-323
-4.94066e-324
2.96439e-323
-4.94066e-324
2.96439e-323
-4.94066e-324
2.96439e-323
-4.94066e-324
2.96439e-323
-4.94066e-324
2.96439e-323
-4.94066e-324
2.96439e-323
-4.94066e-324
2.96439e-323
-4.94066e-324
2.96439e-323
-4.94066e-324
2.96439e-323
-4.94066e-324
2.96439e-323
-4.94066e-324
2.96439e-323
-4.94066e-324
2.96439e-323
-4.94066e-324
2.96439e-323
-4.94066e-324
2.96439e-323
-4.94066e-324
2.96439e-323
-4.94066e-324
2.96439e-323
-4.94066e-324
2.96439e-323
-4.94066e-324
2.96439e-323
-4.94066e-324
2.96439e-323
-4.94066e-324
2.96439e-323
-4.94066e-324
2.96439e-323
-4.94066e-324
2.96439e-323
-4.94066e-324
2.96439e-323
-4.94066e-324
2.96439e-323
-4.94066e-324
2.96439e-323
-4.94066e-324
2.96439e-323
-4.94066e-324
2.96439e-323
-4.94066e-324
9.88131e-324
2.96439e-323
5.43472e-323
7.41098e-323
9.88131e-323
1.18576e-322
1.43279e-322
1.63042e-322
1.87745e-322
2.12448e-322
2.37152e-322
2.61855e-322
2.86558e-322
3.06321e-322
3.26083e-322
3.45846e-322
3.65609e-322
4.15015e-322
4.00193e-322
3.7549e-322
3.55727e-322
3.35965e-322
3.16202e-322
2.96439e-322
2.76677e-322
2.51973e-322
2.2727e-322
2.02567e-322
1.77864e-322
1.5316e-322
1.33398e-322
1.08694e-322
8.89318e-323
6.42285e-323
4.44659e-323
1.97626e-323
-4.94066e-324
-2.96439e-323
-4.94066e-323
-7.41098e-323
-9.38725e-323
-1.13635e-322
-1.38338e-322
-1.63042e-322
-1.87745e-322
-2.07508e-322
-2.2727e-322
-2.51973e-322
-2.71736e-322
-2.96439e-322
-3.16202e-322
-3.40905e-322
-3.65609e-322
-3.85371e-322
-4.05134e-322
-4.24896e-322
-4.496e-322
-4.74303e-322
-4.99006e-322
-5.2371e-322
-5.48413e-322
-5.73116e-322
-5.97819e-322
-6.17582e-322
-6.42285e-322
-6.62048e-322
-6.81811e-322
-7.01573e-322
-7.21336e-322
-7.46039e-322
-7.65802e-322
-7.85564e-322
-8.2509e-322
-2.20353e-321
-4.44017e-320
-1.21662e-318
-3.08398e-317
-7.28725e-316
-1.33494e-314
-2.38341e-314
1.14966e-313
3.25285e-312
5.94413e-311
9.86764e-310
1.53761e-308
2.26289e-307
3.15396e-306
4.17191e-305
5.24653e-304
6.28239e-303
7.17166e-302
7.81344e-301
8.14303e-300
8.18054e-299
8.09159e-298
8.21139e-297
9.02852e-296
1.12875e-294
1.6433e-293
2.75903e-292
5.14281e-291
1.01237e-289
2.01619e-288
3.93281e-287
7.39801e-286
1.32884e-284
2.27271e-283
3.69514e-282
5.7272e-281
8.41794e-280
1.19547e-278
8.7521e-278
7.97251e-278
-7.69518e-277
-1.28407e-275
-1.56672e-274
-1.76936e-273
-1.92768e-272
-2.08201e-271
-2.31208e-270
-2.74526e-269
-3.57792e-268
-5.16807e-267
-8.26942e-266
-1.44922e-264
-2.71358e-263
-5.25636e-262
-1.02084e-260
-1.94537e-259
-3.58608e-258
-6.35329e-257
-1.07228e-255
-1.73218e-254
-2.65474e-253
-3.91454e-252
-4.60149e-251
-7.98202e-251
1.89123e-250
4.67662e-249
6.15391e-248
7.26833e-247
8.14439e-246
8.74696e-245
9.0324e-244
8.9926e-243
8.67677e-242
8.19513e-241
7.69984e-240
7.46451e-239
8.21318e-238
1.1653e-236
2.167e-235
4.70386e-234
1.06534e-232
2.37088e-231
5.06059e-230
1.02515e-228
1.96199e-227
3.56026e-226
6.10833e-225
1.01654e-223
6.97329e-223
4.82294e-223
-9.81e-222
-1.69631e-220
-2.31854e-219
-2.95131e-218
-3.5794e-217
-4.15737e-216
-4.63538e-215
-4.97246e-214
-5.14604e-213
-5.15879e-212
-5.04194e-211
-4.85442e-210
-4.67687e-209
-4.59954e-208
-4.70535e-207
-5.05661e-206
-5.69518e-205
-6.65939e-204
-8.00842e-203
-9.84134e-202
-1.2269e-200
-1.53902e-199
-1.92744e-198
-2.4115e-197
-3.04773e-196
-3.93485e-195
-5.19343e-194
-6.92225e-193
-9.30075e-192
-5.99722e-191
-4.98093e-191
5.63027e-190
9.11136e-189
1.17922e-187
1.56607e-186
2.16587e-185
2.99157e-184
3.95856e-183
4.88637e-182
5.53048e-181
5.67993e-180
5.45403e-179
5.57489e-178
7.15284e-177
1.1493e-175
2.0226e-174
3.50199e-173
5.71866e-172
8.65453e-171
1.20396e-169
1.54503e-168
1.84214e-167
9.62264e-167
7.61277e-167
-7.25658e-166
-7.25585e-165
-1.0206e-164
1.18882e-164
2.42045e-164
-1.43057e-163
-2.1072e-162
-1.8024e-161
-1.29125e-160
-8.36998e-160
-5.01866e-159
-2.39567e-158
-3.65971e-158
-5.65294e-159
2.7564e-157
1.89943e-156
9.26819e-156
1.89533e-155
1.29774e-155
-6.60865e-155
-7.15198e-154
-6.34713e-153
-5.86511e-152
-5.42082e-151
-4.78869e-150
-3.95383e-149
-3.02028e-148
-2.129e-147
-1.41324e-146
-9.55893e-146
-7.48776e-145
-7.27007e-144
-8.27765e-143
-1.01026e-141
-1.24826e-140
-1.5282e-139
-1.86162e-138
-1.66463e-137
-2.28683e-137
6.30921e-137
1.01372e-135
1.81175e-135
-2.02257e-135
-4.70023e-134
-3.83425e-133
-2.39587e-132
-8.08447e-132
-8.08623e-132
8.07622e-132
1.17474e-130
7.84522e-130
5.84586e-129
5.23898e-128
5.10809e-127
4.97553e-126
4.69473e-125
2.91609e-124
6.06527e-124
7.65289e-124
1.78329e-123
1.59617e-122
1.73373e-121
1.74562e-120
1.6292e-119
4.8079e-119
1.33227e-119
-5.99399e-118
-6.92035e-117
-2.87974e-116
-2.01642e-116
2.15518e-115
2.69269e-114
1.32018e-113
1.15062e-113
-7.19562e-113
-9.53661e-112
-8.12254e-111
-1.82305e-110
1.78687e-112
2.59929e-109
2.64123e-108
1.28548e-107
1.21805e-107
-5.21231e-107
-7.00333e-106
-6.05093e-105
-2.46404e-104
-2.10808e-104
1.12018e-103
1.37582e-102
9.71089e-102
1.61672e-101
-6.93915e-102
-2.75783e-100
-2.45823e-99
-1.74532e-98
-4.12422e-98
-1.49139e-98
3.51485e-97
3.33319e-96
2.43821e-95
7.87658e-95
6.00843e-95
-3.55961e-94
-3.84764e-93
-2.84079e-92
-1.31274e-91
-1.42915e-91
2.31094e-91
3.68203e-90
2.79947e-89
1.62468e-88
2.77427e-88
1.28152e-89
-2.85701e-87
-2.3349e-86
-1.53905e-85
-9.52342e-85
-5.74124e-84
-3.41086e-83
-2.0045e-82
-1.16664e-81
-6.72661e-81
-3.84313e-80
-2.17748e-79
-1.2231e-78
-5.06032e-78
-6.02151e-78
3.23156e-78
8.29085e-77
5.76283e-76
3.34991e-75
1.83615e-74
9.80635e-74
5.15953e-73
2.68499e-72
1.38407e-71
7.0714e-71
3.58174e-70
1.79875e-69
8.95698e-69
4.42267e-68
2.16547e-67
1.05143e-66
5.06261e-66
2.41741e-65
1.14477e-64
5.37633e-64
2.50418e-63
1.15683e-62
5.30033e-62
2.40868e-61
1.08569e-60
4.85391e-60
2.15252e-59
9.46851e-59
4.13144e-58
1.7882e-57
7.67778e-57
3.27013e-56
1.3817e-55
5.79148e-55
2.40824e-54
9.93463e-54
4.06585e-53
1.65085e-52
6.65007e-52
2.65774e-51
1.05384e-50
4.14591e-50
1.61827e-49
6.26724e-49
2.40824e-48
9.18182e-48
3.4735e-47
1.30383e-46
4.85617e-46
1.7947e-45
6.58142e-45
2.39487e-44
8.64731e-44
3.0983e-43
1.10157e-42
3.88641e-42
1.36063e-41
4.72704e-41
1.62966e-40
5.57532e-40
1.89282e-39
6.37699e-39
2.13203e-38
7.0737e-38
2.32903e-37
7.60996e-37
2.46757e-36
7.9403e-36
2.53565e-35
8.03572e-35
2.52724e-34
7.88777e-34
2.44315e-33
7.5099e-33
2.2909e-32
6.93533e-32
2.08361e-31
6.21234e-31
1.83815e-30
5.39755e-30
1.57289e-29
4.54869e-29
1.30545e-28
3.71807e-28
1.05089e-27
2.94766e-27
8.20497e-27
2.26649e-26
6.21304e-26
1.69016e-25
4.56268e-25
1.2223e-24
3.24938e-24
8.57202e-24
2.24399e-23
5.82925e-23
1.50263e-22
3.84358e-22
9.75571e-22
2.45707e-21
6.14052e-21
1.52271e-20
3.74671e-20
9.14733e-20
2.21588e-19
5.32598e-19
1.27013e-18
3.00526e-18
7.05499e-18
1.64318e-17
3.79696e-17
8.70454e-17
1.97972e-16
4.46684e-16
9.99836e-16
2.22013e-15
4.89033e-15
1.06856e-14
2.31608e-14
4.97951e-14
1.06191e-13
2.2462e-13
4.71251e-13
9.80595e-13
2.0237e-12
4.14201e-12
8.40752e-12
1.6924e-11
3.37833e-11
6.6873e-11
1.3126e-10
2.55465e-10
4.9298e-10
9.43215e-10
1.78919e-09
3.36473e-09
6.27292e-09
1.1593e-08
2.1238e-08
3.85651e-08
6.94097e-08
1.23814e-07
2.18884e-07
3.83474e-07
6.65745e-07
1.14526e-06
1.95208e-06
3.29657e-06
5.51531e-06
9.14092e-06
1.5007e-05
2.44032e-05
3.93026e-05
6.26876e-05
9.90132e-05
0.000154853
0.000239788
0.0003676
0.00055786
0.000837985
0.00124585
0.00183305
0.00266878
0.00384447
0.00547899
0.00772421
0.0107708
0.0148536
0.020256
0.0273125
0.0364081
0.0479745
0.0624806
0.0804168
0.102273
0.128509
0.15952
0.195596
0.236875
0.283307
0.334614
0.390264
0.449461
0.511156
0.574077
0.636788
0.697767
0.755504
0.808602
0.855885
0.896486
0.929911
0.956072
0.975263
0.988115
0.995557
0.998897
0.999857
0.999993
1
1
1
1
1
1
1
1
1
1
1
1
1
1
1
1
1
1
1
1
1
1
1
1
1
1
1
1
1
1
1
1
1
1
1
1
1
1
1
1
1
1
1
1
1
0.999999
0.999999
0.999998
0.999997
0.999994
0.999991
0.999985
0.999976
0.999961
0.999937
0.999901
0.999845
0.99976
0.999632
0.999442
0.999161
0.998753
0.998165
0.997329
0.996153
0.994517
0.99227
0.989222
0.985137
0.979732
0.972672
0.963572
0.952
0.937488
0.919545
0.897682
0.871438
0.840418
0.804334
0.763046
0.716606
0.665292
0.609637
0.550436
0.488739
0.425819
0.363111
0.302137
0.244408
0.191319
0.144048
0.103459
0.0700451
0.0438956
0.0247142
0.011871
0.00443598
0.00110033
0.000142106
7.01075e-06
9.54043e-08
2.67366e-10
1.21592e-13
1.0975e-17
9.75913e-22
8.57203e-26
7.45994e-30
6.45252e-34
5.56341e-38
4.79312e-42
4.13323e-46
3.5706e-50
3.09075e-54
2.68001e-58
2.32667e-62
2.02121e-66
1.75615e-70
1.52562e-74
1.32494e-78
1.15025e-82
9.98297e-87
8.66237e-91
7.51563e-95
6.5205e-99
5.65727e-103
4.90858e-107
4.25921e-111
3.69594e-115
3.20725e-119
2.78323e-123
2.41528e-127
2.09595e-131
1.81883e-135
1.57832e-139
1.36961e-143
1.18848e-147
1.03131e-151
8.94913e-156
7.76558e-160
6.73855e-164
5.84736e-168
5.07402e-172
4.40296e-176
3.82064e-180
3.31533e-184
2.87685e-188
2.49636e-192
2.16618e-196
1.87967e-200
1.63105e-204
1.41532e-208
1.22811e-212
1.06567e-216
9.24711e-221
8.02395e-225
6.96258e-229
6.04158e-233
5.24241e-237
4.54894e-241
3.94719e-245
3.42504e-249
2.97196e-253
2.57881e-257
2.23766e-261
1.94164e-265
1.68477e-269
1.46189e-273
1.26849e-277
1.10067e-281
9.55054e-286
8.287e-290
7.19062e-294
6.23928e-298
5.4138e-302
4.69752e-306
4.076e-310
3.53671e-314
3.06875e-318
2.56914e-322
0
0
0
0
0
0
0
0
0
0
0
0
0
0
0
0
0
0
0
)
;

boundaryField
{
    sides
    {
        type            zeroGradient;
    }
    empty
    {
        type            empty;
    }
}


// ************************************************************************* //
