/*--------------------------------*- C++ -*----------------------------------*\
| =========                 |                                                 |
| \\      /  F ield         | OpenFOAM: The Open Source CFD Toolbox           |
|  \\    /   O peration     | Version:  2312                                  |
|   \\  /    A nd           | Website:  www.openfoam.com                      |
|    \\/     M anipulation  |                                                 |
\*---------------------------------------------------------------------------*/
FoamFile
{
    version     2.0;
    format      ascii;
    arch        "LSB;label=32;scalar=64";
    class       volScalarField;
    location    "2.1";
    object      T;
}
// * * * * * * * * * * * * * * * * * * * * * * * * * * * * * * * * * * * * * //

dimensions      [0 0 0 1 0 0 0];

internalField   nonuniform List<scalar> 
1000
(
4.65531e-12
4.68567e-12
4.76946e-12
4.90756e-12
5.10143e-12
5.35309e-12
5.66519e-12
6.04097e-12
6.48437e-12
6.99999e-12
7.5932e-12
8.27012e-12
9.03776e-12
9.90403e-12
1.08778e-11
1.1969e-11
1.31889e-11
1.45497e-11
1.60653e-11
1.77509e-11
1.96235e-11
2.17017e-11
2.40063e-11
2.65601e-11
2.93883e-11
3.25187e-11
3.5982e-11
3.98117e-11
4.40451e-11
4.87231e-11
5.38905e-11
5.95967e-11
6.58961e-11
7.28483e-11
8.05188e-11
8.89796e-11
9.83097e-11
1.08596e-10
1.19933e-10
1.32426e-10
1.46188e-10
1.61346e-10
1.78036e-10
1.9641e-10
2.16632e-10
2.38883e-10
2.63361e-10
2.90282e-10
3.19884e-10
3.52426e-10
3.88191e-10
4.27489e-10
4.7066e-10
5.18074e-10
5.70137e-10
6.2729e-10
6.90017e-10
7.58846e-10
8.34352e-10
9.17164e-10
1.00797e-09
1.10751e-09
1.21662e-09
1.33616e-09
1.46713e-09
1.61057e-09
1.76763e-09
1.93957e-09
2.12776e-09
2.33368e-09
2.55895e-09
2.80533e-09
3.07474e-09
3.36926e-09
3.69116e-09
4.04291e-09
4.42717e-09
4.84687e-09
5.30515e-09
5.80546e-09
6.35151e-09
6.94736e-09
7.59738e-09
8.30636e-09
9.07944e-09
9.92224e-09
1.08408e-08
1.18418e-08
1.29322e-08
1.41199e-08
1.54132e-08
1.68211e-08
1.83535e-08
2.0021e-08
2.1835e-08
2.3808e-08
2.59535e-08
2.82859e-08
3.08209e-08
3.35756e-08
3.65682e-08
3.98186e-08
4.33481e-08
4.71798e-08
5.13386e-08
5.58514e-08
6.07472e-08
6.60572e-08
7.18151e-08
7.80574e-08
8.4823e-08
9.21543e-08
1.00097e-07
1.08699e-07
1.18014e-07
1.28098e-07
1.39013e-07
1.50823e-07
1.636e-07
1.7742e-07
1.92363e-07
2.08518e-07
2.25979e-07
2.44846e-07
2.65229e-07
2.87244e-07
3.11016e-07
3.3668e-07
3.64379e-07
3.94268e-07
4.26512e-07
4.61289e-07
4.9879e-07
5.39217e-07
5.8279e-07
6.29742e-07
6.80322e-07
7.348e-07
7.93462e-07
8.56613e-07
9.24582e-07
9.97719e-07
1.0764e-06
1.16102e-06
1.25202e-06
1.34984e-06
1.45497e-06
1.56794e-06
1.68931e-06
1.81965e-06
1.95961e-06
2.10986e-06
2.27112e-06
2.44416e-06
2.62979e-06
2.82887e-06
3.04235e-06
3.2712e-06
3.51646e-06
3.77927e-06
4.06081e-06
4.36234e-06
4.6852e-06
5.03082e-06
5.40073e-06
5.79653e-06
6.21994e-06
6.67277e-06
7.15697e-06
7.67457e-06
8.22775e-06
8.81883e-06
9.45025e-06
1.01246e-05
1.08446e-05
1.16133e-05
1.24336e-05
1.33088e-05
1.42425e-05
1.52383e-05
1.63e-05
1.74318e-05
1.86379e-05
1.99231e-05
2.12921e-05
2.27501e-05
2.43024e-05
2.59549e-05
2.77135e-05
2.95846e-05
3.15749e-05
3.36917e-05
3.59422e-05
3.83345e-05
4.08769e-05
4.35781e-05
4.64474e-05
4.94946e-05
5.27298e-05
5.6164e-05
5.98084e-05
6.36751e-05
6.77765e-05
7.2126e-05
7.67375e-05
8.16256e-05
8.68056e-05
9.22937e-05
9.81069e-05
0.000104263
0.00011078
0.000117679
0.000124979
0.000132703
0.000140872
0.000149512
0.000158645
0.000168299
0.0001785
0.000189278
0.000200661
0.000212682
0.000225373
0.000238768
0.000252903
0.000267814
0.000283542
0.000300127
0.000317611
0.000336039
0.000355457
0.000375913
0.000397459
0.000420146
0.000444029
0.000469166
0.000495616
0.00052344
0.000552704
0.000583475
0.000615823
0.000649819
0.000685541
0.000723066
0.000762476
0.000803856
0.000847294
0.000892882
0.000940714
0.00099089
0.00104351
0.00109868
0.00115652
0.00121713
0.00128063
0.00134715
0.00141682
0.00148975
0.0015661
0.00164599
0.00172958
0.00181702
0.00190845
0.00200405
0.00210397
0.00220838
0.00231747
0.00243141
0.0025504
0.00267462
0.00280427
0.00293957
0.00308071
0.00322793
0.00338144
0.00354147
0.00370827
0.00388207
0.00406313
0.0042517
0.00444805
0.00465246
0.00486519
0.00508654
0.0053168
0.00555627
0.00580526
0.00606409
0.00633308
0.00661255
0.00690286
0.00720435
0.00751737
0.00784228
0.00817946
0.00852929
0.00889214
0.00926843
0.00965854
0.0100629
0.0104819
0.010916
0.0113656
0.0118311
0.0123131
0.012812
0.0133281
0.0138621
0.0144143
0.0149854
0.0155756
0.0161857
0.016816
0.0174671
0.0181395
0.0188338
0.0195504
0.0202899
0.0210529
0.0218399
0.0226515
0.0234882
0.0243505
0.0252392
0.0261546
0.0270975
0.0280684
0.0290678
0.0300965
0.0311548
0.0322436
0.0333632
0.0345144
0.0356977
0.0369137
0.0381631
0.0394463
0.0407641
0.0421169
0.0435054
0.0449302
0.0463918
0.0478908
0.0494278
0.0510034
0.052618
0.0542724
0.0559669
0.0577022
0.0594787
0.0612971
0.0631577
0.0650612
0.0670079
0.0689984
0.0710332
0.0731126
0.0752371
0.0774071
0.0796231
0.0818853
0.0841943
0.0865503
0.0889536
0.0914047
0.0939037
0.0964509
0.0990466
0.101691
0.104384
0.107127
0.109918
0.112759
0.11565
0.11859
0.12158
0.124619
0.127707
0.130846
0.134034
0.137271
0.140557
0.143892
0.147277
0.150709
0.154191
0.15772
0.161297
0.164921
0.168592
0.172309
0.176073
0.179881
0.183735
0.187633
0.191574
0.195559
0.199585
0.203653
0.207762
0.211911
0.216098
0.220323
0.224586
0.228884
0.233218
0.237585
0.241986
0.246418
0.25088
0.255372
0.259891
0.264438
0.269009
0.273605
0.278223
0.282862
0.287521
0.292198
0.296891
0.301599
0.30632
0.311053
0.315796
0.320547
0.325304
0.330066
0.334831
0.339597
0.344362
0.349125
0.353883
0.358634
0.363376
0.368109
0.372828
0.377534
0.382222
0.386892
0.391542
0.396169
0.400771
0.405347
0.409893
0.414409
0.418892
0.423339
0.42775
0.432121
0.43645
0.440736
0.444976
0.449169
0.453312
0.457403
0.461441
0.465422
0.469346
0.473209
0.477011
0.480749
0.484421
0.488026
0.491561
0.495025
0.498415
0.501731
0.504969
0.508129
0.511209
0.514207
0.517121
0.519951
0.522693
0.525348
0.527913
0.530386
0.532768
0.535056
0.537248
0.539345
0.541344
0.543245
0.545046
0.546746
0.548345
0.549841
0.551235
0.552524
0.553708
0.554787
0.555759
0.556625
0.557384
0.558035
0.558579
0.559013
0.55934
0.559558
0.559667
0.559667
0.559558
0.55934
0.559013
0.558579
0.558035
0.557384
0.556625
0.555759
0.554787
0.553708
0.552524
0.551235
0.549841
0.548345
0.546746
0.545046
0.543245
0.541344
0.539345
0.537248
0.535056
0.532768
0.530386
0.527913
0.525348
0.522693
0.519951
0.517121
0.514207
0.511209
0.508129
0.504969
0.501731
0.498415
0.495025
0.491561
0.488026
0.484421
0.480749
0.477011
0.473209
0.469346
0.465422
0.461441
0.457403
0.453312
0.449169
0.444976
0.440736
0.43645
0.432121
0.42775
0.423339
0.418892
0.414409
0.409893
0.405347
0.400771
0.396169
0.391542
0.386892
0.382222
0.377534
0.372828
0.368109
0.363376
0.358634
0.353883
0.349125
0.344362
0.339597
0.334831
0.330066
0.325304
0.320547
0.315796
0.311053
0.30632
0.301599
0.296891
0.292198
0.287521
0.282862
0.278223
0.273605
0.269009
0.264438
0.259891
0.255372
0.25088
0.246418
0.241986
0.237585
0.233218
0.228884
0.224586
0.220323
0.216098
0.211911
0.207762
0.203653
0.199585
0.195559
0.191574
0.187633
0.183735
0.179881
0.176073
0.172309
0.168592
0.164921
0.161297
0.15772
0.154191
0.150709
0.147277
0.143892
0.140557
0.137271
0.134034
0.130846
0.127707
0.124619
0.12158
0.11859
0.11565
0.112759
0.109918
0.107127
0.104384
0.101691
0.0990466
0.0964509
0.0939037
0.0914047
0.0889536
0.0865503
0.0841943
0.0818853
0.0796231
0.0774071
0.0752371
0.0731126
0.0710332
0.0689984
0.0670079
0.0650612
0.0631577
0.0612971
0.0594787
0.0577022
0.0559669
0.0542724
0.052618
0.0510034
0.0494278
0.0478908
0.0463918
0.0449302
0.0435054
0.0421169
0.0407641
0.0394463
0.0381631
0.0369137
0.0356977
0.0345144
0.0333632
0.0322436
0.0311548
0.0300965
0.0290678
0.0280684
0.0270975
0.0261546
0.0252392
0.0243505
0.0234882
0.0226515
0.0218399
0.0210529
0.0202899
0.0195504
0.0188338
0.0181395
0.0174671
0.016816
0.0161857
0.0155756
0.0149854
0.0144143
0.0138621
0.0133281
0.012812
0.0123131
0.0118311
0.0113656
0.010916
0.0104819
0.0100629
0.00965854
0.00926843
0.00889214
0.00852929
0.00817946
0.00784228
0.00751737
0.00720435
0.00690286
0.00661255
0.00633308
0.00606409
0.00580526
0.00555627
0.0053168
0.00508654
0.00486519
0.00465246
0.00444805
0.0042517
0.00406313
0.00388207
0.00370827
0.00354147
0.00338144
0.00322793
0.00308071
0.00293957
0.00280427
0.00267462
0.0025504
0.00243141
0.00231747
0.00220838
0.00210397
0.00200405
0.00190845
0.00181702
0.00172958
0.00164599
0.0015661
0.00148975
0.00141682
0.00134715
0.00128063
0.00121713
0.00115652
0.00109868
0.00104351
0.00099089
0.000940714
0.000892882
0.000847294
0.000803856
0.000762476
0.000723066
0.000685541
0.000649819
0.000615823
0.000583475
0.000552704
0.00052344
0.000495616
0.000469166
0.000444029
0.000420146
0.000397459
0.000375913
0.000355457
0.000336039
0.000317611
0.000300127
0.000283542
0.000267814
0.000252903
0.000238768
0.000225373
0.000212682
0.000200661
0.000189278
0.0001785
0.000168299
0.000158645
0.000149512
0.000140872
0.000132703
0.000124979
0.000117679
0.00011078
0.000104263
9.81069e-05
9.22937e-05
8.68056e-05
8.16256e-05
7.67375e-05
7.2126e-05
6.77765e-05
6.36751e-05
5.98084e-05
5.6164e-05
5.27298e-05
4.94946e-05
4.64474e-05
4.35781e-05
4.08769e-05
3.83345e-05
3.59422e-05
3.36917e-05
3.15749e-05
2.95846e-05
2.77135e-05
2.59549e-05
2.43024e-05
2.27501e-05
2.12921e-05
1.99231e-05
1.86379e-05
1.74318e-05
1.63e-05
1.52383e-05
1.42425e-05
1.33088e-05
1.24336e-05
1.16133e-05
1.08446e-05
1.01246e-05
9.45025e-06
8.81883e-06
8.22775e-06
7.67457e-06
7.15697e-06
6.67277e-06
6.21994e-06
5.79653e-06
5.40073e-06
5.03082e-06
4.6852e-06
4.36234e-06
4.06081e-06
3.77927e-06
3.51646e-06
3.2712e-06
3.04235e-06
2.82887e-06
2.62979e-06
2.44416e-06
2.27112e-06
2.10986e-06
1.95961e-06
1.81965e-06
1.68931e-06
1.56794e-06
1.45497e-06
1.34984e-06
1.25202e-06
1.16102e-06
1.0764e-06
9.97719e-07
9.24582e-07
8.56613e-07
7.93462e-07
7.348e-07
6.80322e-07
6.29742e-07
5.8279e-07
5.39217e-07
4.9879e-07
4.61289e-07
4.26512e-07
3.94268e-07
3.64379e-07
3.3668e-07
3.11016e-07
2.87244e-07
2.65229e-07
2.44846e-07
2.25979e-07
2.08518e-07
1.92363e-07
1.7742e-07
1.636e-07
1.50823e-07
1.39013e-07
1.28098e-07
1.18014e-07
1.08699e-07
1.00097e-07
9.21543e-08
8.4823e-08
7.80574e-08
7.18151e-08
6.60572e-08
6.07472e-08
5.58514e-08
5.13386e-08
4.71798e-08
4.33481e-08
3.98186e-08
3.65682e-08
3.35756e-08
3.08209e-08
2.82859e-08
2.59535e-08
2.3808e-08
2.1835e-08
2.0021e-08
1.83535e-08
1.68211e-08
1.54132e-08
1.41199e-08
1.29322e-08
1.18418e-08
1.08408e-08
9.92224e-09
9.07944e-09
8.30636e-09
7.59738e-09
6.94736e-09
6.35151e-09
5.80546e-09
5.30515e-09
4.84687e-09
4.42717e-09
4.04291e-09
3.69116e-09
3.36926e-09
3.07474e-09
2.80533e-09
2.55895e-09
2.33368e-09
2.12776e-09
1.93957e-09
1.76763e-09
1.61057e-09
1.46713e-09
1.33616e-09
1.21662e-09
1.10751e-09
1.00797e-09
9.17164e-10
8.34352e-10
7.58846e-10
6.90017e-10
6.2729e-10
5.70137e-10
5.18074e-10
4.7066e-10
4.27489e-10
3.88191e-10
3.52426e-10
3.19884e-10
2.90282e-10
2.63361e-10
2.38883e-10
2.16632e-10
1.9641e-10
1.78036e-10
1.61346e-10
1.46188e-10
1.32426e-10
1.19933e-10
1.08596e-10
9.83097e-11
8.89796e-11
8.05188e-11
7.28483e-11
6.58961e-11
5.95967e-11
5.38905e-11
4.87231e-11
4.40451e-11
3.98117e-11
3.5982e-11
3.25187e-11
2.93883e-11
2.65601e-11
2.40063e-11
2.17017e-11
1.96235e-11
1.77509e-11
1.60653e-11
1.45497e-11
1.31889e-11
1.1969e-11
1.08778e-11
9.90403e-12
9.03776e-12
8.27012e-12
7.5932e-12
6.99999e-12
6.48437e-12
6.04097e-12
5.66519e-12
5.35309e-12
5.10143e-12
4.90756e-12
4.76946e-12
4.68567e-12
4.65531e-12
)
;

boundaryField
{
    sides
    {
        type            zeroGradient;
    }
    empty
    {
        type            empty;
    }
}


// ************************************************************************* //
