/*--------------------------------*- C++ -*----------------------------------*\
| =========                 |                                                 |
| \\      /  F ield         | OpenFOAM: The Open Source CFD Toolbox           |
|  \\    /   O peration     | Version:  2312                                  |
|   \\  /    A nd           | Website:  www.openfoam.com                      |
|    \\/     M anipulation  |                                                 |
\*---------------------------------------------------------------------------*/
FoamFile
{
    version     2.0;
    format      ascii;
    arch        "LSB;label=32;scalar=64";
    class       volScalarField;
    location    "1.9";
    object      T;
}
// * * * * * * * * * * * * * * * * * * * * * * * * * * * * * * * * * * * * * //

dimensions      [0 0 0 1 0 0 0];

internalField   nonuniform List<scalar> 
1000
(
0
0
0
0
0
0
0
0
0
0
0
0
0
0
0
0
0
0
0
0
0
0
0
0
0
0
0
0
0
0
0
0
0
0
0
0
0
0
0
0
0
0
0
0
0
0
0
0
0
0
0
0
0
0
0
0
0
0
0
0
0
0
0
0
0
0
0
0
0
0
0
0
0
0
0
0
0
0
0
0
0
0
0
0
0
0
0
0
0
0
0
0
0
0
0
0
0
0
0
0
0
0
0
0
0
0
0
0
0
0
0
0
0
0
0
0
0
0
0
0
0
0
0
0
0
0
0
0
0
0
0
0
0
0
0
0
0
0
0
0
0
0
0
0
0
0
0
0
0
0
0
0
0
0
0
0
0
0
0
0
0
0
0
0
0
0
0
0
0
0
0
0
0
0
0
0
0
0
0
0
0
0
0
0
0
0
0
0
0
0
0
0
0
0
0
0
0
0
0
0
0
0
0
0
0
0
0
0
0
0
0
0
0
0
0
0
0
0
0
0
0
0
0
0
0
0
0
0
0
0
0
0
0
0
0
0
0
0
0
0
0
0
0
0
0
0
0
0
0
0
0
0
0
0
0
0
0
0
0
0
0
0
2.2727e-322
3.52269e-320
4.52384e-318
5.77734e-316
7.34194e-314
9.28428e-312
1.16823e-309
1.46264e-307
1.82206e-305
2.25835e-303
2.7849e-301
3.41669e-299
4.17026e-297
5.06373e-295
6.11665e-293
7.34982e-291
8.78511e-289
1.0445e-286
1.23524e-284
1.45297e-282
1.69984e-280
1.97785e-278
2.28874e-276
2.63393e-274
3.01437e-272
3.43052e-270
3.88221e-268
4.36854e-266
4.88783e-264
5.43753e-262
6.01417e-260
6.61335e-258
7.22972e-256
7.85704e-254
8.48819e-252
9.11534e-250
9.73001e-248
1.03233e-245
1.0886e-243
1.1409e-241
1.18832e-239
1.23001e-237
1.26518e-235
1.29313e-233
1.3133e-231
1.32523e-229
1.32864e-227
1.32339e-225
1.30952e-223
1.28725e-221
1.25693e-219
1.2191e-217
1.17442e-215
1.12367e-213
1.06774e-211
1.00757e-209
9.44167e-208
8.78535e-206
8.11674e-204
7.44546e-202
6.78052e-200
6.13014e-198
5.50157e-196
4.90101e-194
4.33352e-192
3.80297e-190
3.31211e-188
2.86258e-186
2.455e-184
2.0891e-182
1.7638e-180
1.47737e-178
1.22759e-176
1.01182e-174
8.27205e-173
6.70728e-171
5.3935e-169
4.30084e-167
3.40062e-165
2.66594e-163
2.07202e-161
1.59645e-159
1.21925e-157
9.22941e-156
6.92399e-154
5.14756e-152
3.79201e-150
2.76771e-148
2.0013e-146
1.43352e-144
1.01706e-142
7.14668e-141
4.9731e-139
3.42665e-137
2.33768e-135
1.5788e-133
1.05547e-131
6.98373e-130
4.57306e-128
2.96311e-126
1.89959e-124
1.20472e-122
7.5574e-121
4.68878e-119
2.87668e-117
1.74504e-115
1.04651e-113
6.20356e-112
3.63441e-110
2.10405e-108
1.20348e-106
6.80011e-105
3.79502e-103
2.09151e-101
1.1381e-99
6.11362e-98
3.24141e-96
1.69592e-94
8.75451e-93
4.45785e-91
2.23871e-89
1.10856e-87
5.4115e-86
2.6036e-84
1.23433e-82
5.76481e-81
2.65174e-79
1.20105e-77
5.35503e-76
2.34973e-74
1.0144e-72
4.30735e-71
1.79843e-69
7.38124e-68
2.97698e-66
1.17949e-64
4.58914e-63
1.75282e-61
6.56982e-60
2.41553e-58
8.70846e-57
3.07724e-55
1.06534e-53
3.61178e-52
1.19856e-50
3.8913e-49
1.23538e-47
3.83305e-46
1.16167e-44
3.43686e-43
9.92e-42
2.79158e-40
7.65388e-39
2.04311e-37
5.3058e-36
1.33939e-34
3.28394e-33
7.81303e-32
1.80204e-30
4.02516e-29
8.69775e-28
1.81605e-26
3.65936e-25
7.1065e-24
1.32817e-22
2.38521e-21
4.10902e-20
6.77791e-19
1.0684e-17
1.60585e-16
2.29598e-15
3.11441e-14
3.9963e-13
4.83498e-12
5.49538e-11
5.84354e-10
5.78619e-09
5.30659e-08
4.47974e-07
3.4559e-06
2.41567e-05
0.000151446
0.000841168
0.00407722
0.0169277
0.0588143
0.166195
0.369705
0.630295
0.833805
0.941186
0.983072
0.995923
0.999159
0.999849
0.999976
0.999997
1
1
1
1
1
1
1
1
1
1
1
1
1
1
1
1
1
1
1
1
1
1
1
1
1
1
1
1
1
1
1
1
1
1
1
1
1
1
1
1
1
1
1
1
1
1
1
1
1
1
1
1
1
1
1
1
1
1
1
1
1
1
1
1
1
1
1
1
1
1
1
1
1
1
1
1
1
1
1
1
1
1
0.999997
0.999976
0.999849
0.999159
0.995923
0.983072
0.941186
0.833805
0.630295
0.369705
0.166195
0.0588143
0.0169277
0.00407722
0.000841168
0.000151446
2.41567e-05
3.4559e-06
4.47974e-07
5.30659e-08
5.78619e-09
5.84354e-10
5.49538e-11
4.83498e-12
3.9963e-13
3.11441e-14
2.29598e-15
1.60585e-16
1.0684e-17
6.77791e-19
4.10902e-20
2.38521e-21
1.32817e-22
7.1065e-24
3.65936e-25
1.81605e-26
8.69775e-28
4.02516e-29
1.80204e-30
7.81303e-32
3.28394e-33
1.33939e-34
5.3058e-36
2.04311e-37
7.65388e-39
2.79158e-40
9.92e-42
3.43686e-43
1.16167e-44
3.83305e-46
1.23538e-47
3.8913e-49
1.19856e-50
3.61178e-52
1.06534e-53
3.07724e-55
8.70846e-57
2.41553e-58
6.56982e-60
1.75282e-61
4.58914e-63
1.17949e-64
2.97698e-66
7.38124e-68
1.79843e-69
4.30735e-71
1.0144e-72
2.34973e-74
5.35503e-76
1.20105e-77
2.65174e-79
5.76481e-81
1.23433e-82
2.6036e-84
5.4115e-86
1.10856e-87
2.23871e-89
4.45785e-91
8.75451e-93
1.69592e-94
3.24141e-96
6.11362e-98
1.1381e-99
2.09151e-101
3.79502e-103
6.80011e-105
1.20348e-106
2.10405e-108
3.63441e-110
6.20356e-112
1.04651e-113
1.74504e-115
2.87668e-117
4.68878e-119
7.5574e-121
1.20472e-122
1.89959e-124
2.96311e-126
4.57306e-128
6.98373e-130
1.05547e-131
1.5788e-133
2.33768e-135
3.42665e-137
4.9731e-139
7.14668e-141
1.01706e-142
1.43352e-144
2.0013e-146
2.76771e-148
3.79201e-150
5.14756e-152
6.92399e-154
9.22941e-156
1.21925e-157
1.59645e-159
2.07202e-161
2.66594e-163
3.40062e-165
4.30084e-167
5.3935e-169
6.70728e-171
8.27205e-173
1.01182e-174
1.22759e-176
1.47737e-178
1.7638e-180
2.0891e-182
2.455e-184
2.86258e-186
3.31211e-188
3.80297e-190
4.33352e-192
4.90101e-194
5.50157e-196
6.13014e-198
6.78052e-200
7.44546e-202
8.11674e-204
8.78535e-206
9.44167e-208
1.00757e-209
1.06774e-211
1.12367e-213
1.17442e-215
1.2191e-217
1.25693e-219
1.28725e-221
1.30952e-223
1.32339e-225
1.32864e-227
1.32523e-229
1.3133e-231
1.29313e-233
1.26518e-235
1.23001e-237
1.18832e-239
1.1409e-241
1.0886e-243
1.03233e-245
9.73001e-248
9.11534e-250
8.48819e-252
7.85704e-254
7.22972e-256
6.61335e-258
6.01417e-260
5.43753e-262
4.88783e-264
4.36854e-266
3.88221e-268
3.43052e-270
3.01437e-272
2.63393e-274
2.28874e-276
1.97785e-278
1.69984e-280
1.45297e-282
1.23524e-284
1.0445e-286
8.78511e-289
7.34982e-291
6.11665e-293
5.06373e-295
4.17026e-297
3.41669e-299
2.7849e-301
2.25835e-303
1.82206e-305
1.46264e-307
1.16823e-309
9.28428e-312
7.34194e-314
5.77734e-316
4.52384e-318
3.52269e-320
2.2727e-322
0
0
0
0
0
0
0
0
0
0
0
0
0
0
0
0
0
0
0
0
0
0
0
0
0
0
0
0
0
0
0
0
0
0
0
0
0
0
0
0
0
0
0
0
0
0
0
0
0
0
0
0
0
0
0
0
0
0
0
0
0
0
0
0
0
0
0
0
0
0
0
0
0
0
0
0
0
0
0
0
0
0
0
0
0
0
0
0
0
0
0
0
0
0
0
0
0
0
0
0
0
0
0
0
0
0
0
0
0
0
0
0
0
0
0
0
0
0
0
0
0
0
0
0
0
0
0
0
0
0
0
0
0
0
0
0
0
0
0
0
0
0
0
0
0
0
0
0
0
0
0
0
0
0
0
0
0
0
0
0
0
0
0
0
0
0
0
0
0
0
0
0
0
0
0
0
0
0
0
0
0
0
0
0
0
0
0
0
0
0
0
0
0
0
0
0
0
0
0
0
0
0
0
0
0
0
0
0
0
0
0
0
0
0
0
0
0
0
0
0
0
0
0
0
0
0
0
0
0
0
0
0
0
0
0
0
0
0
0
0
0
0
0
0
0
0
0
0
0
0
0
0
0
0
0
0
0
0
0
0
0
0
)
;

boundaryField
{
    sides
    {
        type            zeroGradient;
    }
    empty
    {
        type            empty;
    }
}


// ************************************************************************* //
