/*--------------------------------*- C++ -*----------------------------------*\
| =========                 |                                                 |
| \\      /  F ield         | OpenFOAM: The Open Source CFD Toolbox           |
|  \\    /   O peration     | Version:  2312                                  |
|   \\  /    A nd           | Website:  www.openfoam.com                      |
|    \\/     M anipulation  |                                                 |
\*---------------------------------------------------------------------------*/
FoamFile
{
    version     2.0;
    format      ascii;
    arch        "LSB;label=32;scalar=64";
    class       volScalarField;
    location    "2.6";
    object      T;
}
// * * * * * * * * * * * * * * * * * * * * * * * * * * * * * * * * * * * * * //

dimensions      [0 0 0 1 0 0 0];

internalField   nonuniform List<scalar> 
1000
(
2.95936e-46
-5.24285e-46
1.24108e-45
-2.86158e-45
6.59561e-45
-1.51672e-44
3.48028e-44
-7.96848e-44
1.82048e-43
-4.14991e-43
9.43918e-43
-2.14223e-42
4.85101e-42
-1.09604e-41
2.47086e-41
-5.55764e-41
1.24724e-40
-2.7927e-40
6.23889e-40
-1.39058e-39
3.09234e-39
-6.86082e-39
1.51865e-38
-3.35373e-38
7.38898e-38
-1.62413e-37
3.5615e-37
-7.79143e-37
1.70047e-36
-3.7024e-36
8.04187e-36
-1.74255e-35
3.7667e-35
-8.12235e-35
1.7472e-34
-3.74921e-34
8.02539e-34
-1.71364e-33
3.65e-33
-7.755e-33
1.64355e-32
-3.47446e-32
7.32646e-32
-1.54098e-31
3.23287e-31
-6.76498e-31
1.41196e-30
-2.93938e-30
6.10318e-30
-1.26392e-29
2.61061e-29
-5.37795e-29
1.10494e-28
-2.26412e-28
4.62696e-28
-9.43021e-28
1.91677e-27
-3.8854e-27
7.8544e-27
-1.58341e-26
3.18328e-26
-6.38186e-26
1.27587e-25
-2.54356e-25
5.05653e-25
-1.00237e-24
1.98136e-24
-3.90527e-24
7.67511e-24
-1.50403e-23
2.93873e-23
-5.72515e-23
1.11207e-22
-2.1537e-22
4.15854e-22
-8.00553e-22
1.53648e-21
-2.93997e-21
5.60827e-21
-1.06654e-20
2.022e-20
-3.82148e-20
7.19978e-20
-1.35219e-19
2.53148e-19
-4.72416e-19
8.78775e-19
-1.62939e-18
3.01131e-18
-5.54706e-18
1.01844e-17
-1.86365e-17
3.3989e-17
-6.17802e-17
1.11915e-16
-2.02041e-16
3.63494e-16
-6.51703e-16
1.16436e-15
-2.07297e-15
3.67759e-15
-6.50104e-15
1.14509e-14
-2.00967e-14
3.51415e-14
-6.12237e-14
1.06269e-13
-1.83768e-13
3.1659e-13
-5.43341e-13
9.28932e-13
-1.58204e-12
2.68385e-12
-4.53515e-12
7.63313e-12
-1.27961e-11
2.13648e-11
-3.55264e-11
5.88327e-11
-9.70253e-11
1.59343e-10
-2.60582e-10
4.24327e-10
-6.87995e-10
1.11065e-09
-1.7851e-09
2.85637e-09
-4.55004e-09
7.21515e-09
-1.13889e-08
1.78938e-08
-2.79825e-08
4.35521e-08
-6.74599e-08
1.03985e-07
-1.59501e-07
2.43439e-07
-3.69682e-07
5.58533e-07
-8.39503e-07
1.25521e-06
-1.86683e-06
2.76154e-06
-4.06278e-06
5.9441e-06
-8.64774e-06
1.25094e-05
-1.79906e-05
2.57213e-05
-3.65538e-05
5.16323e-05
-7.2479e-05
0.000101101
-0.00014012
0.000192927
-0.000263862
0.000358418
-0.00048347
0.000647515
-0.000860913
0.00113611
-0.00148784
0.0019332
-0.00249167
0.00318493
-0.00403642
0.00507066
-0.00631216
0.00778396
-0.00950563
0.0114909
-0.0137446
0.0162598
-0.0190139
0.0219654
-0.0250507
0.0281818
-0.0312452
0.0341026
-0.0365938
0.0385424
-0.0397647
0.0400818
-0.0393343
0.0373995
-0.0342095
0.0297684
-0.0241677
0.0175956
-0.0103393
0.00277779
0.00463652
-0.0114081
0.0170389
-0.0210771
0.0231696
-0.0231122
0.0208906
-0.0167051
0.0109717
-0.00429735
-0.00257518
0.00884645
-0.0137583
0.0166979
-0.0172924
0.0154794
-0.0115363
0.00606102
0.000102145
-0.00598303
0.0106383
-0.0133124
0.0135774
-0.0114242
0.00728229
-0.00195587
-0.00351662
0.00805974
-0.0107777
0.0111459
-0.0091337
0.00522473
-0.000323359
-0.00444038
0.00796785
-0.00945303
0.00858382
-0.0056288
0.00138013
0.00304123
-0.00647418
0.00802711
-0.00732445
0.00461738
-0.000720297
-0.00321715
0.00604305
-0.00694606
0.00570385
-0.00275595
-0.000929391
0.00416
-0.0059039
0.00562885
-0.00348161
0.000240341
0.00295156
-0.00498399
0.00517358
-0.00351001
0.000660313
0.00227732
-0.00418485
0.00434831
-0.00273072
-1.70469e-05
0.00281825
-0.00460668
0.00476358
-0.00337499
0.00119799
0.000655969
-0.00119082
-5.19818e-05
0.00280496
-0.0062077
0.00920691
-0.0110458
0.0116179
-0.0115185
0.0117619
-0.0132953
0.0165365
-0.0211613
0.026246
-0.030698
0.0337612
-0.0353387
0.0359678
-0.0364568
0.0373749
-0.0386677
0.0396132
-0.0391504
0.0364143
-0.0311911
0.024047
-0.0160631
0.00832442
-0.00145727
-0.00452571
0.00998945
-0.015204
0.019937
-0.0233822
0.0244932
-0.022546
0.0175998
-0.0105782
0.00291562
0.00402732
-0.00943542
0.0131382
-0.0153217
0.016096
-0.0152492
0.0123878
-0.0073762
0.00076326
0.00614328
-0.0116725
0.0144644
-0.0140322
0.0108871
-0.00617632
0.00110037
0.0035102
-0.00723
0.00976913
-0.0107155
0.00958137
-0.00617815
0.00103728
0.00450412
-0.00872983
0.010293
-0.00883994
0.00512115
-0.000542223
-0.00352473
0.00622623
-0.00727747
0.00670678
-0.00463672
0.0013365
0.0025426
-0.0058811
0.0074146
-0.0063778
0.00304615
0.00126164
-0.00480321
0.00628366
-0.00542284
0.00290137
0.000170442
-0.00281481
0.00442538
-0.00469326
0.00350966
-0.00106857
-0.00193295
0.00433245
-0.00497827
0.00342933
-0.000357018
-0.00273839
0.00437506
-0.00392384
0.00185844
0.000681086
-0.00260102
0.00331634
-0.00277137
0.00124137
0.00077862
-0.00256823
0.00330377
-0.00246649
0.000312591
0.00206473
-0.00331422
0.00271297
-0.000676717
-0.00153607
0.00269349
-0.00234159
0.000913172
0.000735808
-0.00186721
0.00209809
-0.00137935
-2.56288e-05
0.00150692
-0.00224898
0.00169492
-5.74648e-05
-0.00165286
0.00228347
-0.00141662
-0.000295638
0.00165574
-0.00183887
0.000913239
0.000388563
-0.00129342
0.00141933
-0.00080514
-0.000230071
0.00117611
-0.00146284
0.000796236
0.000484215
-0.00148237
0.00140212
-0.000268028
-0.00102558
0.00146913
-0.000798601
-0.000353987
0.00109557
-0.00100309
0.000300084
0.000490014
-0.000925852
0.000790057
-0.000129005
-0.000684172
0.00105357
-0.000598855
-0.00039328
0.0010863
-0.000842616
-0.000120972
0.000919338
-0.000870409
0.000118979
0.000610598
-0.000758218
0.000341481
0.00024293
-0.000608345
0.000552216
-8.67919e-05
-0.000500639
0.000723015
-0.000297395
-0.000454002
0.000800912
-0.000362709
-0.000422579
0.000750207
-0.000332033
-0.000337834
0.000597773
-0.000303359
-0.000174976
0.000436979
-0.000352032
8.67927e-06
0.000368651
-0.000464246
0.00010933
0.000415414
-0.000542434
7.22243e-05
0.000491512
-0.00049909
-4.00841e-05
0.00048063
-0.000359831
-9.58028e-05
0.000364621
-0.000254913
-3.5912e-05
0.000259569
-0.000276896
4.4133e-05
0.000285622
-0.000355174
5.71765e-07
0.000402492
-0.000327609
-0.00016256
0.000438251
-0.000158864
-0.000274068
0.000319943
-1.04007e-05
-0.000229018
0.000194345
-1.24371e-05
-0.000158872
0.00021199
-4.67951e-05
-0.000232564
0.00026563
7.46707e-05
-0.000353095
0.000146104
0.000266968
-0.000289913
-7.67612e-05
0.000281109
-9.57952e-05
-0.000141875
0.000155254
-3.65673e-05
-8.10192e-05
0.000155332
-7.42176e-05
-0.000161287
0.00022415
6.62736e-05
-0.000297584
6.98609e-05
0.000269867
-0.000175832
-0.000165902
0.000203272
3.99696e-05
-0.00014377
5.31136e-05
2.52498e-05
-8.09836e-05
0.000105756
4.27062e-05
-0.000205246
3.64471e-05
0.000247141
-0.000118939
-0.000228553
0.000170339
0.000165621
-0.000170376
-8.38591e-05
0.000117095
7.80395e-06
-2.45942e-05
4.63626e-05
-8.3232e-05
-7.35457e-05
0.000180109
7.81026e-05
-0.000243713
-6.94095e-05
0.00025981
5.66832e-05
-0.000224135
-4.49163e-05
0.000142512
3.3194e-05
-2.98331e-05
-1.58849e-05
-9.18692e-05
-1.36245e-05
0.000196451
5.77949e-05
-0.000258245
-0.000110279
0.000258392
0.00015409
-0.000192147
-0.000164771
7.49082e-05
0.000119494
5.6682e-05
-1.04565e-05
-0.000152389
-0.000142578
0.000166393
0.000288666
-8.1933e-05
-0.000358914
-6.82593e-05
0.000298544
0.000201576
-0.000107572
-0.000217875
-0.000133988
6.11395e-05
0.000285636
0.000219321
-0.000223386
-0.000459074
-5.46584e-05
0.000461475
0.000371098
-0.000155792
-0.000446328
-0.0002763
0.000119585
0.000458525
0.000427935
-0.000120952
-0.000699864
-0.000543702
0.000299018
0.000871877
0.000531135
-0.000323009
-0.000880507
-0.000722362
7.08393e-05
0.000990189
0.00120604
0.000259555
-0.00116704
-0.00170554
-0.000739081
0.000960445
0.00205478
0.00171666
1.37469e-05
-0.00211512
-0.00314246
-0.00191235
0.00115893
0.00404524
0.00459298
0.00209396
-0.00235621
-0.00648326
-0.00774453
-0.00450127
0.00268951
0.0107108
0.0152166
0.0128385
0.00275694
-0.0128337
-0.0289014
-0.0383179
-0.0335206
-0.00869409
0.0387571
0.108077
0.195765
0.2962
0.402452
0.507595
0.606024
0.693979
0.769259
0.83094
0.879416
0.916247
0.943497
0.963029
0.976405
0.985177
0.990891
0.994684
0.997087
0.998368
0.998956
0.99936
0.999779
1.00004
0.999986
0.999823
0.999851
1.00007
1.00018
1.00003
0.999823
0.999855
1.00009
1.00021
1.00004
0.999802
0.999819
1.00008
1.00025
1.00009
0.9998
0.999749
1.00002
1.00029
1.0002
0.999856
0.999662
0.999873
1.00026
1.00036
1.00004
0.999638
0.999632
1.00006
1.00046
1.00037
0.999858
0.999447
0.999604
1.00021
1.00066
1.00046
0.999747
0.999213
0.999419
1.00024
1.00093
1.0008
0.999875
0.99893
0.998848
0.999821
1.00111
1.00162
1.00079
0.999124
0.997899
0.998195
1.00003
1.00221
1.00311
1.00182
0.998863
0.996054
0.995397
0.997805
1.00235
1.00658
1.00777
1.0044
0.99727
0.989382
0.984843
0.98708
0.997164
1.0129
1.029
1.03828
1.03341
1.00871
0.961357
0.891943
0.804125
0.703745
0.597643
0.492494
0.393908
0.305906
0.230769
0.169188
0.120605
0.0836292
0.0564317
0.0370693
0.0237116
0.014773
0.0089663
0.00530202
0.0030547
0.00171464
0.000937558
0.000499277
0.000258852
0.000130593
6.4071e-05
3.05431e-05
1.41317e-05
6.33703e-06
2.74895e-06
1.15066e-06
4.63163e-07
1.78405e-07
6.52861e-08
2.24369e-08
7.09618e-09
1.98118e-09
4.36059e-10
3.90092e-11
-3.09407e-11
-2.64115e-11
-1.39686e-11
-6.02986e-12
-2.25443e-12
-7.3444e-13
-2.01218e-13
-4.02673e-14
-1.34034e-15
4.04763e-15
2.74406e-15
1.25225e-15
4.6086e-16
1.39936e-16
3.28139e-17
3.96375e-18
-1.34835e-18
-1.26742e-18
-6.0966e-19
-2.21981e-19
-6.3853e-20
-1.31228e-20
-6.89421e-22
1.02385e-21
6.64964e-22
2.71675e-22
8.41417e-23
1.89895e-23
1.87711e-24
-9.22708e-25
-7.05708e-25
-2.94913e-25
-8.99912e-26
-1.92823e-26
-1.42599e-27
1.15161e-27
7.57488e-28
2.90027e-28
7.95524e-29
1.37394e-29
-4.7372e-31
-1.56089e-30
-7.62277e-31
-2.44631e-31
-5.35802e-32
-4.43837e-33
2.72125e-33
1.77834e-33
6.40968e-34
1.57285e-34
1.99141e-35
-4.3327e-36
-3.90397e-36
-1.51868e-36
-3.91863e-37
-5.57468e-38
7.45095e-39
8.4018e-39
3.35182e-39
8.64608e-40
1.20925e-40
-1.67505e-41
-1.80226e-41
-6.95761e-42
-1.70838e-42
-2.07382e-43
4.62695e-44
3.81169e-44
1.34968e-44
2.99062e-45
2.51486e-46
-1.28224e-46
-7.72104e-47
-2.40016e-47
-4.47014e-48
-7.09994e-50
3.19611e-49
1.44689e-49
3.78968e-50
5.17504e-51
-6.90206e-52
-6.91343e-52
-2.42019e-52
-5.0298e-53
-2.99988e-54
2.51284e-54
1.27697e-54
3.46041e-55
4.93158e-56
-5.07414e-57
-5.70648e-57
-1.97243e-57
-3.92041e-58
-1.70628e-59
2.12915e-59
9.82463e-60
2.43542e-60
2.78794e-61
-6.08014e-62
-4.38006e-62
-1.30959e-62
-2.11441e-63
7.79235e-65
1.76698e-64
6.3591e-65
1.26124e-65
5.45593e-67
-6.46464e-67
-2.85451e-67
-6.57853e-68
-5.95575e-69
2.13023e-69
1.20329e-69
3.13112e-70
3.83864e-71
-6.18554e-72
-4.82183e-72
-1.3913e-72
-2.02985e-73
1.49234e-74
1.85629e-74
5.85478e-75
9.55493e-76
-2.42137e-77
-6.93296e-77
-2.3564e-77
-4.14149e-78
-1.33643e-80
2.53505e-79
9.13453e-80
1.6818e-80
3.33817e-82
-9.14788e-82
-3.42729e-82
-6.46078e-83
-1.80657e-84
3.27734e-84
1.24854e-84
2.36039e-85
6.88393e-87
-1.16931e-86
-4.42287e-87
-8.21969e-88
-1.97698e-89
4.15355e-89
1.5236e-89
2.72765e-90
3.40427e-92
-1.464e-91
-5.0974e-92
-8.60177e-93
5.59945e-95
5.09228e-94
1.65215e-94
2.56277e-95
-9.01045e-97
-1.73663e-96
-5.16891e-97
-7.13816e-98
5.58593e-99
5.76797e-99
1.55345e-99
1.82331e-100
-2.67583e-101
-1.85384e-101
-4.45642e-102
-4.10495e-103
1.11117e-103
5.73058e-104
1.2098e-104
7.32634e-106
-4.16696e-106
-1.69333e-106
-3.06865e-107
-5.8342e-109
1.43731e-108
4.75119e-109
7.12073e-110
-2.91416e-111
-4.60003e-111
-1.25552e-111
-1.44995e-112
2.06246e-113
1.37059e-113
3.08921e-114
2.32063e-115
-8.7417e-116
-3.80007e-116
-6.94923e-117
-1.57875e-118
3.02274e-118
9.76321e-119
1.38054e-119
-7.85098e-121
-9.16452e-121
-2.30315e-121
-2.2257e-122
4.82421e-123
2.49709e-123
4.89977e-124
2.03572e-125
-1.7919e-125
-6.15412e-126
-9.05048e-127
3.66067e-128
5.39219e-128
1.36419e-128
1.31174e-129
-2.76422e-130
-1.4054e-130
-2.66467e-131
-8.84976e-133
1.00396e-132
3.23115e-133
4.34878e-134
-2.92018e-135
-2.83401e-135
-6.51873e-136
-4.96869e-137
1.62972e-137
6.77618e-138
1.11743e-138
-2.8696e-141
-5.16775e-140
-1.39821e-140
-1.46892e-141
2.32175e-142
1.29097e-142
2.4494e-143
8.29061e-145
-8.70528e-145
-2.70723e-145
-3.38857e-146
2.92436e-147
2.30625e-147
3.55027e-148
)
;

boundaryField
{
    sides
    {
        type            zeroGradient;
    }
    empty
    {
        type            empty;
    }
}


// ************************************************************************* //
