/*--------------------------------*- C++ -*----------------------------------*\
| =========                 |                                                 |
| \\      /  F ield         | OpenFOAM: The Open Source CFD Toolbox           |
|  \\    /   O peration     | Version:  2312                                  |
|   \\  /    A nd           | Website:  www.openfoam.com                      |
|    \\/     M anipulation  |                                                 |
\*---------------------------------------------------------------------------*/
FoamFile
{
    version     2.0;
    format      ascii;
    arch        "LSB;label=32;scalar=64";
    class       volScalarField;
    location    "2.5";
    object      T;
}
// * * * * * * * * * * * * * * * * * * * * * * * * * * * * * * * * * * * * * //

dimensions      [0 0 0 1 0 0 0];

internalField   nonuniform List<scalar> 
1000
(
4.73568e-51
-9.03595e-51
2.20379e-50
-5.27944e-50
1.26311e-49
-3.01555e-49
7.18408e-49
-1.70786e-48
4.05143e-48
-9.59034e-48
2.2653e-47
-5.33926e-47
1.25573e-46
-2.9469e-46
6.90063e-46
-1.61235e-45
3.75903e-45
-8.74447e-45
2.02969e-44
-4.70065e-44
1.08622e-43
-2.50439e-43
5.76115e-43
-1.32232e-42
3.02814e-42
-6.91873e-42
1.57719e-41
-3.5871e-41
8.13958e-41
-1.8427e-40
4.16196e-40
-9.37834e-40
2.10832e-39
-4.72851e-39
1.058e-38
-2.36164e-38
5.25906e-38
-1.16832e-37
2.58923e-37
-5.72442e-37
1.26252e-36
-2.77771e-36
6.09637e-36
-1.33472e-35
2.91497e-35
-6.35041e-35
1.38003e-34
-2.99148e-34
6.46835e-34
-1.39509e-33
3.00131e-33
-6.44038e-33
1.37848e-32
-2.94286e-32
6.2664e-32
-1.33088e-31
2.81919e-31
-5.95622e-31
1.25509e-30
-2.6377e-30
5.52868e-30
-1.15573e-29
2.40948e-29
-5.00978e-29
1.0388e-28
-2.14815e-28
4.42999e-28
-9.11056e-28
1.86846e-27
-3.82131e-27
7.79335e-27
-1.58495e-26
3.21422e-26
-6.49981e-26
1.31064e-25
-2.63523e-25
5.28319e-25
-1.05612e-24
2.10502e-24
-4.18336e-24
8.28914e-24
-1.63758e-23
3.22549e-23
-6.33407e-23
1.2401e-22
-2.42051e-22
4.71009e-22
-9.13721e-22
1.76706e-21
-3.40673e-21
6.54727e-21
-1.25433e-20
2.39544e-20
-4.56007e-20
8.65287e-20
-1.63661e-19
3.08541e-19
-5.79774e-19
1.08585e-18
-2.02694e-18
3.77102e-18
-6.99222e-18
1.29211e-17
-2.37958e-17
4.36727e-17
-7.98761e-17
1.45583e-16
-2.6441e-16
4.78532e-16
-8.62973e-16
1.55069e-15
-2.77641e-15
4.95291e-15
-8.80326e-15
1.55891e-14
-2.75029e-14
4.83399e-14
-8.46425e-14
1.47643e-13
-2.56547e-13
4.44053e-13
-7.65603e-13
1.3148e-12
-2.24898e-12
3.8315e-12
-6.5012e-12
1.09861e-11
-1.84885e-11
3.09851e-11
-5.17108e-11
8.59345e-11
-1.42198e-10
2.34285e-10
-3.84326e-10
6.27682e-10
-1.02058e-09
1.65195e-09
-2.6618e-09
4.2693e-09
-6.81586e-09
1.08304e-08
-1.7128e-08
2.69577e-08
-4.22229e-08
6.58078e-08
-1.02058e-07
1.5748e-07
-2.41763e-07
3.69242e-07
-5.60995e-07
8.4782e-07
-1.27442e-06
1.90526e-06
-2.83266e-06
4.18792e-06
-6.15644e-06
8.99808e-06
-1.30744e-05
1.88842e-05
-2.71109e-05
3.86821e-05
-5.48467e-05
7.7271e-05
-0.000108157
0.000150389
-0.0002077
0.00028488
-0.000387997
0.000524646
-0.000704217
0.000938153
-0.00124019
0.00162653
-0.00211596
0.00272976
-0.00349145
0.00442628
-0.00556031
0.00691912
-0.00852603
0.0103998
-0.0125517
0.0149825
-0.0176784
0.0206074
-0.023716
0.0269255
-0.0301303
0.0331976
-0.0359691
0.0382656
-0.039895
0.0406639
-0.0403918
0.0389293
-0.0361773
0.0321064
-0.026775
0.0203419
-0.0130728
0.00533608
0.0024126
-0.00965869
0.0158695
-0.020545
0.0232745
-0.0237924
0.0220275
-0.0181343
0.0125023
-0.00573522
-0.00140124
0.00806123
-0.0134225
0.0167999
-0.0177522
0.016164
-0.0122856
0.00671881
-0.00034262
-0.00581409
0.0107377
-0.0136066
0.0139468
-0.0117349
0.00742269
-0.00186883
-0.00381505
0.00848125
-0.0111839
0.0113875
-0.0090968
0.00487153
0.00028639
-0.00515577
0.00858288
-0.00976497
0.00845818
-0.00505108
0.000475721
0.00402983
-0.00725119
0.00833286
-0.00702375
0.00375724
0.000466563
-0.00437115
0.00678624
-0.00700855
0.00502595
-0.00152682
-0.00231732
0.0052338
-0.00627328
0.00513363
-0.00226683
-0.00127654
0.00421911
-0.00551743
0.00474489
-0.0022514
-0.000967581
0.00365131
-0.00476229
0.00389334
-0.00142782
-0.00161859
0.00401791
-0.00484328
0.00386154
-0.00163436
-0.000722439
0.00202318
-0.00153054
-0.000724546
0.0039707
-0.00706533
0.00903924
-0.00956258
0.00910784
-0.00872514
0.00953228
-0.0121653
0.0164621
-0.0215399
0.0262318
-0.02966
0.0316471
-0.0327468
0.0338723
-0.0357209
0.0383069
-0.0408669
0.0421994
-0.0412603
0.0376873
-0.0319637
0.0251297
-0.0182174
0.011743
-0.00556149
-0.000830943
0.00773713
-0.0148008
0.0209566
-0.0248491
0.0254896
-0.0227615
0.0174722
-0.0109295
0.00431756
0.00173404
-0.00713087
0.0119046
-0.0157469
0.0178657
-0.0173193
0.0136378
-0.00731127
-0.000213805
0.00707706
-0.0117707
0.0136692
-0.0130312
0.0105547
-0.00686567
0.00232822
0.00272588
-0.00761629
0.0111985
-0.0122364
0.0100858
-0.00521797
-0.000832246
0.00612407
-0.00917869
0.00951962
-0.007604
0.00431393
-0.000462206
-0.00333574
0.00646009
-0.00811887
0.00754798
-0.00454135
-0.000111397
0.00473875
-0.00752663
0.00745245
-0.00478821
0.000845288
0.00281125
-0.00509875
0.00565801
-0.00462652
0.00233981
0.000705977
-0.00369659
0.00552257
-0.00523327
0.0027066
0.0010274
-0.00420992
0.00533927
-0.00403762
0.00117717
0.00177005
-0.00360569
0.00387433
-0.00276059
0.000752645
0.00152682
-0.00330056
0.00374639
-0.00243378
-0.000187168
0.00279031
-0.00389644
0.00286763
-0.000375507
-0.00207175
0.00316437
-0.00255777
0.000854459
0.000988094
-0.00221242
0.00242753
-0.00155644
-0.000121068
0.00186663
-0.00267826
0.00191809
7.04575e-05
-0.00202303
0.00262755
-0.00153074
-0.000414508
0.00187195
-0.00203167
0.00104062
0.000349147
-0.00139166
0.00166353
-0.00106769
-0.000161662
0.00139747
-0.00181626
0.000988439
0.00060379
-0.00178058
0.00161363
-0.000260602
-0.00116835
0.00160205
-0.000875397
-0.00030812
0.00110459
-0.00113111
0.000506334
0.000393284
-0.00108135
0.00108455
-0.000269799
-0.000846237
0.00134281
-0.000716118
-0.000529741
0.00128302
-0.000901064
-0.000184665
0.000973569
-0.000887455
0.000172669
0.000534082
-0.000792526
0.000521449
0.00010913
-0.000716893
0.000806534
-0.000179761
-0.000687122
0.000950938
-0.000290468
-0.000648166
0.000911116
-0.00028586
-0.000520476
0.000733338
-0.000291455
-0.000288294
0.000549637
-0.000394464
-4.32563e-05
0.000488732
-0.000559223
7.65314e-05
0.00056198
-0.000650774
1.94042e-05
0.000641668
-0.000573807
-0.000106557
0.000588439
-0.000397451
-0.000130537
0.000419381
-0.000303824
-1.70976e-05
0.000311614
-0.000374551
7.01835e-05
0.000388049
-0.00046525
-3.08666e-05
0.000531367
-0.000378008
-0.000239398
0.000516291
-0.000150887
-0.000314386
0.000337982
-3.04325e-05
-0.000213118
0.000243147
-9.07972e-05
-0.000182199
0.000332959
-8.29034e-05
-0.00034876
0.000353377
0.000147775
-0.00045353
0.000120916
0.000339199
-0.000285272
-0.000103268
0.000258437
-0.000102653
-7.52945e-05
0.000165515
-0.000147962
-6.72162e-05
0.000291205
-0.000121883
-0.000294241
0.000294473
0.000176739
-0.000365908
-1.431e-05
0.00031037
-0.000107293
-0.000161843
0.000133108
-1.20957e-05
-5.76621e-05
0.000145322
-8.12946e-05
-0.000199797
0.00022523
0.000174813
-0.000320375
-9.95097e-05
0.000335778
1.57319e-05
-0.000269218
3.99756e-05
0.000142241
-4.86012e-05
1.08901e-05
1.23288e-05
-0.000154887
4.95703e-05
0.00026188
-0.000109641
-0.000315158
0.000142399
0.00030895
-0.000132759
-0.000246205
8.08411e-05
0.000136499
-2.25961e-06
4.68406e-06
-7.61737e-05
-0.000155393
0.000124737
0.000286895
-0.000121606
-0.000366014
6.35117e-05
0.000362249
2.77347e-05
-0.000259911
-0.000107523
7.20346e-05
0.000122917
0.000151164
-3.83199e-05
-0.000328734
-0.000136125
0.000376895
0.000329624
-0.000254624
-0.000427787
6.98055e-06
0.000329689
0.000227249
-2.71249e-05
-0.00027306
-0.000343785
3.7168e-05
0.000541262
0.000377273
-0.000371762
-0.000668188
-0.000111887
0.000522003
0.000540537
7.72137e-05
-0.00045048
-0.00067811
-0.000255592
0.000630269
0.00100227
0.000235951
-0.000897372
-0.00112793
-0.000255633
0.000837558
0.00127892
0.000730162
-0.000586968
-0.00173608
-0.00150463
0.000261412
0.00210634
0.00232601
0.000644278
-0.00172863
-0.00319551
-0.00262879
8.10727e-05
0.00352604
0.00521321
0.00339193
-0.00130897
-0.0061985
-0.00829577
-0.005842
0.000958504
0.00958022
0.0156295
0.0147854
0.00532627
-0.0106479
-0.0278274
-0.0390337
-0.0365608
-0.0138633
0.0325176
0.101985
0.190563
0.292314
0.400354
0.507582
0.607783
0.696747
0.772469
0.834425
0.882991
0.919457
0.945973
0.964871
0.977946
0.986483
0.991745
0.99505
0.997282
0.998677
0.999278
0.999434
0.999627
0.999965
1.00015
1
0.999795
0.999861
1.00013
1.00021
0.999987
0.999769
0.999874
1.00017
1.00024
0.999976
0.999734
0.999848
1.00018
1.00029
1.00001
0.999703
0.999772
1.00015
1.00036
1.00012
0.999709
0.99964
1.00002
1.00041
1.00032
0.999836
0.999506
0.999739
1.0003
1.00057
1.0002
0.999566
0.999361
0.99985
1.00056
1.00074
1.00014
0.999323
0.999116
0.999799
1.00078
1.0011
1.00038
0.999181
0.998598
0.999256
1.00071
1.00175
1.00138
0.999727
0.998018
0.997687
0.999232
1.00171
1.00332
1.00265
0.999796
0.996441
0.994908
0.996652
1.00119
1.00614
1.00841
1.00591
0.998939
0.990331
0.98446
0.98532
0.994602
1.01053
1.02788
1.03917
1.03654
1.01372
0.967471
0.898154
0.809485
0.707557
0.599561
0.492525
0.392336
0.303181
0.227386
0.1656
0.117166
0.0805728
0.0538761
0.0350411
0.022175
0.0136568
0.00818659
0.00477705
0.00271341
0.00150013
0.000807073
0.000422404
0.000214969
0.000106314
5.10512e-05
2.37771e-05
1.07259e-05
4.67754e-06
1.96709e-06
7.94998e-07
3.07277e-07
1.12765e-07
3.88414e-08
1.23059e-08
3.4405e-09
7.58644e-10
6.87689e-11
-5.29944e-11
-4.53433e-11
-2.3918e-11
-1.02743e-11
-3.81301e-12
-1.22824e-12
-3.29993e-13
-6.29021e-14
-1.99053e-16
7.49447e-15
4.77837e-15
2.11573e-15
7.57748e-16
2.2226e-16
4.8885e-17
4.30781e-18
-2.9564e-18
-2.26356e-18
-1.01989e-18
-3.52959e-19
-9.53213e-20
-1.71236e-20
3.97068e-22
2.06984e-21
1.14191e-21
4.29836e-22
1.22686e-22
2.3985e-23
6.66508e-25
-2.0949e-24
-1.22015e-24
-4.54755e-25
-1.24333e-25
-2.17212e-26
6.69815e-28
2.49458e-27
1.25643e-27
4.19682e-28
9.86279e-29
1.11528e-29
-3.60954e-30
-2.91094e-30
-1.15029e-30
-3.13627e-31
-5.20429e-32
2.69951e-33
6.11142e-33
2.79459e-33
8.30398e-34
1.57676e-34
3.0659e-36
-1.24921e-35
-6.31928e-36
-1.94924e-36
-3.83584e-37
-1.40673e-38
2.63488e-38
1.36364e-38
4.15979e-39
7.89416e-40
1.69922e-41
-5.8169e-41
-2.81829e-41
-8.09567e-42
-1.37155e-42
4.01207e-44
1.2968e-43
5.50108e-44
1.41611e-44
1.89917e-45
-2.86115e-46
-2.76535e-46
-9.88258e-47
-2.1505e-47
-1.64875e-48
9.53857e-49
5.38288e-49
1.57744e-49
2.6276e-50
-8.10563e-52
-2.32958e-51
-9.21114e-52
-2.12277e-52
-2.01181e-53
7.35979e-54
4.53351e-54
1.33054e-54
2.15605e-55
-8.4911e-57
-1.90569e-56
-7.12199e-57
-1.51267e-57
-1.00875e-58
6.69446e-59
3.38535e-59
8.75252e-60
1.09626e-60
-1.77515e-61
-1.45791e-61
-4.4796e-62
-7.43972e-63
1.76872e-64
5.75283e-64
2.09656e-64
4.16217e-65
1.81862e-66
-2.09332e-66
-9.15528e-67
-2.07192e-67
-1.75424e-68
7.04827e-69
3.78391e-69
9.49549e-70
1.06587e-70
-2.20062e-71
-1.49712e-71
-4.08363e-72
-5.37257e-73
6.39582e-74
5.72546e-74
1.66809e-74
2.41702e-75
-1.75351e-76
-2.13394e-76
-6.52465e-77
-1.00053e-77
4.72299e-79
7.80301e-79
2.45706e-79
3.86866e-80
-1.36982e-81
-2.81224e-81
-8.9379e-82
-1.40771e-82
4.78742e-84
1.00112e-83
3.14543e-84
4.83351e-85
-2.03351e-86
-3.5186e-86
-1.07084e-86
-1.56421e-87
9.43518e-89
1.21768e-88
3.5214e-89
4.745e-90
-4.34392e-91
-4.13116e-91
-1.11529e-91
-1.33358e-92
1.89983e-93
1.36666e-93
3.3872e-94
3.39178e-95
-7.78965e-96
-4.38292e-96
-9.80374e-97
-7.39971e-98
2.9886e-98
1.35441e-98
2.68043e-99
1.16865e-100
-1.07415e-100
-4.00723e-101
-6.83034e-102
-1.7636e-105
3.62108e-103
1.12707e-103
1.58542e-104
-1.02127e-105
-1.14521e-105
-2.98726e-106
-3.19862e-107
5.71226e-108
3.39372e-108
7.3712e-109
4.91647e-110
-2.28555e-110
-9.39376e-111
-1.66093e-111
-2.18027e-113
7.73485e-113
2.41442e-113
3.29405e-114
-2.3115e-115
-2.32478e-115
-5.70256e-116
-5.24671e-117
1.27712e-117
6.31442e-118
1.21424e-118
4.42702e-120
-4.63434e-120
-1.55511e-120
-2.24016e-121
1.06497e-122
1.38364e-122
3.44751e-123
3.21907e-124
-7.27728e-125
-3.59577e-125
-6.73105e-126
-2.01857e-127
2.60173e-127
8.25617e-128
1.09528e-128
-7.92289e-130
-7.3047e-130
-1.66341e-130
-1.23467e-131
4.25472e-132
1.74158e-132
2.84309e-133
-1.53678e-135
-1.33751e-134
-3.58375e-135
-3.70675e-136
6.10988e-137
3.32572e-137
6.25162e-138
1.97837e-139
-2.25809e-139
-6.94296e-140
-8.5737e-141
7.81671e-142
5.86635e-142
1.21583e-142
6.5123e-144
-3.59558e-144
-1.23319e-144
-1.68347e-145
9.26242e-147
9.70882e-147
2.13903e-147
1.40399e-148
-5.52026e-149
-2.03365e-149
-2.91312e-150
1.12137e-151
1.52462e-151
3.44709e-152
2.42167e-153
-8.54807e-154
-2.37517e-154
)
;

boundaryField
{
    sides
    {
        type            zeroGradient;
    }
    empty
    {
        type            empty;
    }
}


// ************************************************************************* //
