/*--------------------------------*- C++ -*----------------------------------*\
| =========                 |                                                 |
| \\      /  F ield         | OpenFOAM: The Open Source CFD Toolbox           |
|  \\    /   O peration     | Version:  2312                                  |
|   \\  /    A nd           | Website:  www.openfoam.com                      |
|    \\/     M anipulation  |                                                 |
\*---------------------------------------------------------------------------*/
FoamFile
{
    version     2.0;
    format      ascii;
    arch        "LSB;label=32;scalar=64";
    class       volScalarField;
    location    "4.8";
    object      T;
}
// * * * * * * * * * * * * * * * * * * * * * * * * * * * * * * * * * * * * * //

dimensions      [0 0 0 1 0 0 0];

internalField   nonuniform List<scalar> 
1000
(
0.515978
0.49429
0.493452
0.489738
0.491416
0.50888
0.512092
0.536392
0.535061
0.546325
0.537286
0.526453
0.514149
0.489674
0.482957
0.463748
0.46863
0.470036
0.485239
0.508659
0.526959
0.559401
0.572278
0.594861
0.596113
0.595169
0.581578
0.555455
0.525921
0.484078
0.439505
0.395628
0.339902
0.304262
0.244433
0.220498
0.164408
0.151055
0.103193
0.09952
0.0582499
0.0663464
0.0252127
0.0486084
0.00111091
0.0408499
-0.0150855
0.0374031
-0.0240713
0.0347969
-0.0277083
0.0323466
-0.028652
0.0305139
-0.028529
0.0287544
-0.026789
0.0250902
-0.0217292
0.0178287
-0.0128331
0.00752235
-0.00202781
-0.00304969
0.0074709
-0.0109545
0.0134734
-0.0150564
0.0158319
-0.0158998
0.0153178
-0.0140656
0.0120844
-0.00932866
0.00584014
-0.00179791
-0.00246682
0.00650768
-0.009842
0.0120518
-0.0128761
0.0122674
-0.0103957
0.00760023
-0.00430614
0.000934371
0.00216894
-0.00476478
0.00671353
-0.00794076
0.00839968
-0.00805239
0.00688189
-0.00493038
0.00234505
0.000594815
-0.00349101
0.00588733
-0.00736642
0.00765455
-0.00669992
0.00469642
-0.00204248
-0.000753659
0.00319293
-0.00489246
0.00565073
-0.00545822
0.00446058
-0.00289694
0.00103952
0.00084665
-0.0025202
0.00376657
-0.00440492
0.0043113
-0.00345747
0.00194965
-4.35219e-05
-0.00188452
0.00341414
-0.00418878
0.00402064
-0.00295447
0.00126385
0.000622969
-0.00224431
0.00323281
-0.00340769
0.00280444
-0.00163961
0.000231036
0.00109366
-0.00207055
0.00253916
-0.00245025
0.00185446
-0.000885276
-0.000258376
0.00133494
-0.00209734
0.00234728
-0.00199647
0.00111201
7.97451e-05
-0.00124456
0.00203857
-0.00222196
0.00174471
-0.000768386
-0.000388056
0.00135911
-0.00185758
0.00176575
-0.00116075
0.000270538
0.000615536
-0.00124344
0.00146396
-0.00125787
0.000720183
-1.95535e-05
-0.000649235
0.00110912
-0.00123791
0.000997877
-0.000452781
-0.000237748
0.000855351
-0.00118948
0.00111458
-0.000646705
-4.99849e-05
0.00071807
-0.00110589
0.00107008
-0.000635545
-1.57864e-05
0.000623116
-0.000956396
0.000907805
-0.000526082
-1.66474e-05
0.0005046
-0.000765557
0.000729025
-0.000437522
1.60502e-05
0.000380315
-0.000618801
0.000626767
-0.000409437
4.68897e-05
0.000329303
-0.000577586
0.000597706
-0.00037468
-5.90242e-06
0.00038538
-0.000597508
0.000545183
-0.000250484
-0.000150853
0.000472163
-0.000566244
0.000397082
-5.52278e-05
-0.000290808
0.000480258
-0.000437179
0.0002002
0.00010606
-0.000337754
0.000399601
-0.000281412
5.15768e-05
0.000181932
-0.000320481
0.00031262
-0.000169576
-4.28812e-05
0.000231295
-0.000311812
0.000246251
-6.2534e-05
-0.000153005
0.000293457
-0.000284945
0.00012865
9.47679e-05
-0.000265654
0.00029114
-0.000158666
-5.57551e-05
0.000231224
-0.000272093
0.000162219
2.90546e-05
-0.000191081
0.000237377
-0.000152309
-6.64418e-06
0.00014781
-0.000198528
0.000141297
-1.59886e-05
-0.000107394
0.000166723
-0.000136678
3.73911e-05
7.78632e-05
-0.000148987
0.000138456
-5.12602e-05
-6.52954e-05
0.000145016
-0.00013998
5.09416e-05
6.95617e-05
-0.000147204
0.000132658
-3.48794e-05
-8.3087e-05
0.000145032
-0.00011229
9.19335e-06
9.45534e-05
-0.000131882
8.27789e-05
1.52676e-05
-9.59458e-05
0.000109644
-5.38388e-05
-3.01538e-05
8.79245e-05
-8.69608e-05
3.35421e-05
3.57193e-05
-7.85488e-05
7.15157e-05
-2.14948e-05
-3.99881e-05
7.52925e-05
-6.25266e-05
9.28933e-06
5.04768e-05
-7.69154e-05
5.09228e-05
1.08711e-05
-6.55057e-05
7.35023e-05
-2.84089e-05
-3.69632e-05
7.42355e-05
-5.60627e-05
-2.84649e-06
5.73071e-05
-6.68742e-05
2.66297e-05
3.06305e-05
-6.14061e-05
4.50485e-05
2.57589e-06
-4.41351e-05
5.03604e-05
-2.03423e-05
-2.11387e-05
4.40874e-05
-3.45091e-05
1.85356e-06
2.98812e-05
-3.9165e-05
2.0656e-05
1.20544e-05
-3.56881e-05
3.30422e-05
-5.53301e-06
-2.66327e-05
3.85712e-05
-2.00999e-05
-1.48444e-05
3.80893e-05
-3.01222e-05
-2.8239e-06
3.31442e-05
-3.5198e-05
7.61678e-06
2.54734e-05
-3.57515e-05
1.54474e-05
1.66454e-05
-3.26977e-05
2.03392e-05
7.86746e-06
-2.7152e-05
2.24922e-05
-6.69627e-08
-2.02174e-05
2.24362e-05
-6.73599e-06
-1.2857e-05
2.0847e-05
-1.19965e-05
-5.83337e-06
1.83997e-05
-1.5879e-05
3.05247e-07
1.5666e-05
-1.84954e-05
5.21489e-06
1.30548e-05
-1.99755e-05
8.73718e-06
1.07896e-05
-2.04364e-05
1.08795e-05
8.91965e-06
-1.99833e-05
1.1795e-05
7.35731e-06
-1.87318e-05
1.17567e-05
5.93673e-06
-1.68388e-05
1.11208e-05
4.48439e-06
-1.45274e-05
1.02737e-05
2.88868e-06
-1.20892e-05
9.56447e-06
1.15253e-06
-9.85626e-06
9.23412e-06
-5.87328e-07
-8.14169e-06
9.35805e-06
-2.08595e-06
-7.16245e-06
9.82381e-06
-3.06079e-06
-6.96759e-06
1.03613e-05
-3.29167e-06
-7.40293e-06
1.06282e-05
-2.71817e-06
-8.13737e-06
1.03334e-05
-1.4947e-06
-8.75791e-06
9.35836e-06
3.08578e-08
-8.91196e-06
7.8258e-06
1.42369e-06
-8.44712e-06
6.07446e-06
2.32556e-06
-7.48451e-06
4.53064e-06
2.61029e-06
-6.37657e-06
3.51792e-06
2.45257e-06
-5.54589e-06
3.08902e-06
2.2557e-06
-5.26477e-06
2.97439e-06
2.44786e-06
-5.48399e-06
2.70025e-06
3.23424e-06
-5.81826e-06
1.84228e-06
4.44092e-06
-5.72801e-06
2.8981e-07
5.56293e-06
-4.82368e-06
-1.64134e-06
6.02425e-06
-3.1221e-06
-3.34715e-06
5.51888e-06
-1.07832e-06
-4.27582e-06
4.21765e-06
6.65017e-07
-4.2685e-06
2.67622e-06
1.67664e-06
-3.65734e-06
1.46876e-06
2.01164e-06
-3.01499e-06
7.8767e-07
2.13502e-06
-2.70601e-06
3.23091e-07
2.50954e-06
-2.5824e-06
-4.39375e-07
3.15152e-06
-2.10701e-06
-1.70197e-06
3.54512e-06
-8.61151e-07
-3.05526e-06
3.05469e-06
9.70487e-07
-3.71569e-06
1.53337e-06
2.60361e-06
-3.16859e-06
-4.21942e-07
3.22725e-06
-1.66308e-06
-1.87309e-06
2.6759e-06
-5.53054e-08
-2.29403e-06
1.55212e-06
9.17138e-07
-1.95943e-06
6.27949e-07
1.23626e-06
-1.5435e-06
1.0737e-07
1.43479e-06
-1.32512e-06
-4.4051e-07
1.81103e-06
-9.00008e-07
-1.35686e-06
1.93934e-06
1.95469e-07
-2.2192e-06
1.15343e-06
1.64341e-06
-2.13659e-06
-4.74218e-07
2.39759e-06
-8.17074e-07
-1.89419e-06
1.76075e-06
8.74972e-07
-2.06743e-06
2.51889e-07
1.71172e-06
-1.08966e-06
-9.05695e-07
1.39361e-06
-9.10501e-09
-1.13556e-06
6.98277e-07
4.83012e-07
-9.47125e-07
2.84956e-07
7.15051e-07
-8.85307e-07
-1.24101e-07
1.12266e-06
-6.02738e-07
-9.38374e-07
1.22481e-06
4.0941e-07
-1.55894e-06
2.93342e-07
1.52524e-06
-9.675e-07
-1.15563e-06
1.44035e-06
5.69497e-07
-1.61172e-06
7.04959e-08
1.47015e-06
-6.06734e-07
-1.08322e-06
9.25534e-07
5.69359e-07
-9.78439e-07
-6.19833e-08
7.84e-07
-3.23835e-07
-4.13439e-07
5.14591e-07
-3.3235e-08
-4.8812e-07
4.53276e-07
2.7041e-07
-7.63182e-07
7.72397e-08
9.12677e-07
-4.75974e-07
-8.89392e-07
8.47374e-07
7.15227e-07
-1.12801e-06
-4.36866e-07
1.27843e-06
1.13485e-07
-1.28609e-06
1.95438e-07
1.16297e-06
-4.40035e-07
-9.39425e-07
5.86453e-07
6.56263e-07
-6.19427e-07
-3.56658e-07
5.41469e-07
7.93339e-08
-3.69563e-07
1.46222e-07
1.30459e-07
-3.02216e-07
1.44402e-07
3.82857e-07
-4.23509e-07
-3.9294e-07
6.78886e-07
3.453e-07
-8.8846e-07
-2.57734e-07
1.03716e-06
1.49895e-07
-1.11696e-06
-4.05433e-08
1.12613e-06
-5.4596e-08
-1.06801e-06
1.24268e-07
9.49661e-07
-1.62415e-07
-7.80565e-07
1.68256e-07
5.71599e-07
-1.45825e-07
-3.34331e-07
1.03078e-07
8.06583e-08
-5.0681e-08
1.77275e-07
5.72688e-10
-4.27007e-07
3.56126e-08
6.55682e-07
-4.81628e-08
-8.50129e-07
3.08423e-08
9.9726e-07
1.7759e-08
-1.0849e-06
-9.3259e-08
1.10307e-06
1.85109e-07
-1.04578e-06
-2.77036e-07
9.12915e-07
3.48486e-07
-7.1217e-07
-3.77186e-07
4.60365e-07
3.42747e-07
-1.83681e-07
-2.31009e-07
-8.37505e-08
3.85438e-08
3.03291e-07
2.23598e-07
-4.37371e-07
-5.27987e-07
4.56762e-07
8.31924e-07
-3.48506e-07
-1.08242e-06
1.22808e-07
1.22529e-06
1.8329e-07
-1.21753e-06
-5.07667e-07
1.04093e-06
7.71912e-07
-7.13417e-07
-8.97318e-07
2.94159e-07
8.26053e-07
1.21688e-07
-5.42953e-07
-4.20682e-07
9.11766e-08
5.0019e-07
4.25754e-07
-3.03222e-07
-8.6127e-07
-1.51103e-07
1.06338e-06
7.54216e-07
-9.2611e-07
-1.32323e-06
4.39904e-07
1.64907e-06
2.79484e-07
-1.56998e-06
-1.00362e-06
1.04871e-06
1.45517e-06
-2.20553e-07
-1.41308e-06
-6.20075e-07
8.25256e-07
1.11081e-06
1.22627e-07
-9.73893e-07
-1.03277e-06
1.74994e-07
1.43667e-06
9.93209e-07
-1.01893e-06
-1.97607e-06
-1.70809e-07
2.18864e-06
1.6444e-06
-1.33957e-06
-2.63541e-06
-3.1543e-07
2.48083e-06
1.9766e-06
-1.06212e-06
-2.6536e-06
-9.6485e-07
1.76244e-06
2.38909e-06
3.59875e-07
-2.12712e-06
-2.42737e-06
4.29262e-08
2.87163e-06
2.6681e-06
-9.5404e-07
-4.00404e-06
-2.3965e-06
2.51738e-06
4.82514e-06
1.30844e-06
-4.093e-06
-4.86499e-06
6.88494e-08
5.05915e-06
4.47998e-06
-9.98843e-07
-5.54121e-06
-4.4457e-06
1.33813e-06
6.23588e-06
5.1432e-06
-1.59109e-06
-7.64579e-06
-6.28579e-06
2.25425e-06
9.61428e-06
7.39897e-06
-3.21579e-06
-1.15763e-05
-8.46246e-06
3.77378e-06
1.31463e-05
1.00695e-05
-3.12849e-06
-1.43968e-05
-1.30161e-05
7.9131e-07
1.55601e-05
1.77279e-05
3.45473e-06
-1.64061e-05
-2.3927e-05
-9.91477e-06
1.57446e-05
3.05736e-05
1.92001e-05
-1.13303e-05
-3.57838e-05
-3.18495e-05
2.33367e-07
3.6446e-05
4.71292e-05
2.02295e-05
-2.76818e-05
-6.10883e-05
-5.06049e-05
3.02448e-06
6.44406e-05
8.58368e-05
4.29437e-05
-4.19246e-05
-0.000110282
-0.000107282
-2.31995e-05
9.40581e-05
0.000166012
0.000133871
6.02516e-07
-0.000162152
-0.000249967
-0.000187831
1.57951e-05
0.000258516
0.000391554
0.000304949
2.74027e-06
-0.000379242
-0.000630174
-0.000571179
-0.000159723
0.000462303
0.00100677
0.00115689
0.000720785
-0.000245002
-0.00140547
-0.00224077
-0.00224161
-0.00113704
0.000934179
0.00338106
0.00527702
0.00561696
0.00365437
-0.000768117
-0.00698624
-0.0134505
-0.0178592
-0.0174623
-0.00946962
0.00852267
0.0381663
0.0801147
0.133929
0.198146
0.270476
0.3481
0.427994
0.507229
0.583214
0.653867
0.717704
0.773857
0.822023
0.862364
0.89539
0.921838
0.942572
0.958495
0.970489
0.979359
0.985798
0.990385
0.993588
0.995784
0.997266
0.998259
0.998916
0.999339
0.9996
0.999752
0.999843
0.999905
0.999954
0.999987
0.999999
0.999991
0.999979
0.99998
0.999996
1.00002
1.00002
1.00001
0.999984
0.99997
0.999981
1.00001
1.00004
1.00003
1
0.999964
0.999952
0.999979
1.00003
1.00006
1.00005
0.999996
0.999935
0.999915
0.999958
1.00004
1.00011
1.00011
1.00002
0.999907
0.999834
0.999865
0.999999
1.00016
1.00025
1.00019
0.999983
0.999741
0.99961
0.999696
0.999997
1.00038
1.00063
1.00057
1.00016
0.999537
0.998991
0.998842
0.999281
1.00025
1.00141
1.00224
1.00224
1.00114
0.999068
0.996619
0.994721
0.994381
0.996346
1.00077
1.00699
1.01345
1.01786
1.01746
1.00947
0.99148
0.961833
0.919882
0.866068
0.801855
0.729528
0.651902
0.572003
0.492767
0.416785
0.346137
0.282301
0.226143
0.177972
0.137631
0.10461
0.0781673
0.0574334
0.0415036
0.0295039
0.0206361
0.014204
0.00962272
0.0064174
0.0042136
0.00272417
0.0017344
0.00108752
0.000671634
0.000408566
0.000244819
0.000144509
8.4026e-05
4.81281e-05
2.71542e-05
1.50906e-05
8.25996e-06
4.45254e-06
2.36343e-06
1.23514e-06
6.35402e-07
3.21693e-07
1.60243e-07
7.85094e-08
3.78189e-08
1.79039e-08
8.3254e-09
3.80023e-09
1.70149e-09
7.46565e-10
3.20648e-10
1.34617e-10
5.51449e-11
2.19902e-11
8.50977e-12
3.1819e-12
1.14231e-12
3.8988e-13
1.24399e-13
3.5904e-14
8.64164e-15
1.23489e-15
-3.13825e-16
-3.96759e-16
-2.40324e-16
-1.16512e-16
-4.96819e-17
-1.91866e-17
-6.74597e-18
-2.1317e-18
-5.79962e-19
-1.17972e-19
-4.66305e-21
1.22529e-20
8.93737e-21
4.46156e-21
1.85416e-21
6.71609e-22
2.11958e-22
5.56851e-23
1.01019e-23
-3.33198e-25
-1.47841e-24
-9.23029e-25
-4.16899e-25
-1.56165e-25
-4.95737e-26
-1.27816e-26
-2.15765e-27
1.68271e-28
3.65137e-28
2.1005e-28
8.84803e-29
3.04823e-29
8.56815e-30
1.7434e-30
7.80698e-32
-1.54202e-31
-1.03465e-31
-4.54006e-32
-1.57517e-32
-4.3636e-33
-8.44935e-34
-1.4875e-35
8.60715e-35
5.29698e-35
2.18639e-35
7.05762e-36
1.74426e-36
2.47864e-37
-4.60553e-38
-5.38809e-38
-2.62889e-38
-9.3837e-39
-2.57835e-39
-4.74552e-40
3.82508e-42
5.26766e-41
2.9542e-41
1.11639e-41
3.20848e-42
6.23444e-43
3.9164e-45
)
;

boundaryField
{
    sides
    {
        type            zeroGradient;
    }
    empty
    {
        type            empty;
    }
}


// ************************************************************************* //
