/*--------------------------------*- C++ -*----------------------------------*\
| =========                 |                                                 |
| \\      /  F ield         | OpenFOAM: The Open Source CFD Toolbox           |
|  \\    /   O peration     | Version:  2312                                  |
|   \\  /    A nd           | Website:  www.openfoam.com                      |
|    \\/     M anipulation  |                                                 |
\*---------------------------------------------------------------------------*/
FoamFile
{
    version     2.0;
    format      ascii;
    arch        "LSB;label=32;scalar=64";
    class       volScalarField;
    location    "0.5";
    object      T;
}
// * * * * * * * * * * * * * * * * * * * * * * * * * * * * * * * * * * * * * //

dimensions      [0 0 0 1 0 0 0];

internalField   nonuniform List<scalar> 
1000
(
3.6582e-274
-3.46514e-273
2.85345e-272
-2.3503e-271
1.93274e-270
-1.58681e-269
1.30069e-268
-1.06444e-267
8.69692e-267
-7.09419e-266
5.7774e-265
-4.69735e-264
3.81296e-263
-3.09001e-262
2.50002e-261
-2.01935e-260
1.62841e-259
-1.31098e-258
1.05368e-257
-8.45469e-257
6.77274e-256
-5.41633e-255
4.32434e-254
-3.44671e-253
2.74259e-252
-2.17863e-251
1.72772e-250
-1.36781e-249
1.08105e-248
-8.52947e-248
6.7183e-247
-5.28268e-246
4.14673e-245
-3.24946e-244
2.54196e-243
-1.98507e-242
1.54751e-241
-1.20431e-240
9.35595e-240
-7.25572e-239
5.61714e-238
-4.341e-237
3.3489e-236
-2.57899e-235
1.98259e-234
-1.52142e-233
1.16545e-232
-8.91186e-232
6.80252e-231
-5.18317e-230
3.94225e-229
-2.99305e-228
2.26832e-227
-1.71597e-226
1.29578e-225
-9.7671e-225
7.34872e-224
-5.51908e-223
4.13742e-222
-3.09597e-221
2.31243e-220
-1.72401e-219
1.28296e-218
-9.52973e-218
7.06552e-217
-5.22879e-216
3.86232e-215
-2.84764e-214
2.0956e-213
-1.53928e-212
1.12851e-211
-8.25806e-211
6.03153e-210
-4.39696e-209
3.19927e-208
-2.32339e-207
1.68408e-206
-1.21835e-205
8.79717e-205
-6.33984e-204
4.5601e-203
-3.27363e-202
2.34552e-201
-1.67727e-200
1.19707e-199
-8.52678e-199
6.06173e-198
-4.30084e-197
3.04545e-196
-2.15224e-195
1.51798e-194
-1.0685e-193
7.50618e-193
-5.26251e-192
3.68208e-191
-2.57111e-190
1.79172e-189
-1.24606e-188
8.64821e-188
-5.99003e-187
4.14042e-186
-2.85608e-185
1.96609e-184
-1.35065e-183
9.25941e-183
-6.33467e-182
4.32477e-181
-2.94643e-180
2.00318e-179
-1.35905e-178
9.20102e-178
-6.21614e-177
4.1907e-176
-2.81924e-175
1.89257e-174
-1.26778e-173
8.47439e-173
-5.65249e-172
3.76214e-171
-2.49857e-170
1.6558e-169
-1.09491e-168
7.22444e-168
-4.75641e-167
3.12465e-166
-2.04818e-165
1.3396e-164
-8.74221e-164
5.69249e-163
-3.69841e-162
2.39749e-161
-1.55069e-160
1.00073e-159
-6.44359e-159
4.13958e-158
-2.65336e-157
1.69687e-156
-1.0827e-155
6.89238e-155
-4.37756e-154
2.77391e-153
-1.75367e-152
1.10609e-151
-6.96025e-151
4.36959e-150
-2.73677e-149
1.71006e-148
-1.06601e-147
6.62946e-147
-4.11304e-146
2.54572e-145
-1.57188e-144
9.6824e-144
-5.94976e-143
3.64725e-142
-2.23036e-141
1.36059e-140
-8.27977e-140
5.02623e-139
-3.04366e-138
1.83856e-137
-1.10785e-136
6.65893e-136
-3.99248e-135
2.38777e-134
-1.42445e-133
8.47632e-133
-5.03113e-132
2.97865e-131
-1.759e-130
1.03609e-129
-6.08712e-129
3.56702e-128
-2.08484e-127
1.21538e-126
-7.0667e-126
4.0981e-125
-2.37032e-124
1.36736e-123
-7.86701e-123
4.51419e-122
-2.58338e-121
1.47446e-120
-8.39285e-120
4.76443e-119
-2.69733e-118
1.52291e-117
-8.57486e-117
4.81489e-116
-2.69618e-115
1.5056e-114
-8.38421e-114
4.6559e-113
-2.57826e-112
1.42374e-111
-7.8398e-111
4.30475e-110
-2.35697e-109
1.28682e-108
-7.00541e-108
3.80274e-107
-2.05827e-106
1.11082e-105
-5.97746e-105
3.20712e-104
-1.71567e-103
9.15096e-103
-4.86641e-102
2.5802e-101
-1.36394e-100
7.18838e-100
-3.77704e-99
1.97858e-98
-1.0333e-97
5.37985e-97
-2.79239e-96
1.4449e-95
-7.45328e-95
3.83267e-94
-1.96469e-93
1.00396e-92
-5.11403e-92
2.59674e-91
-1.31433e-90
6.63111e-90
-3.33477e-89
1.67162e-88
-8.35204e-88
4.15935e-87
-2.06457e-86
1.0214e-85
-5.03643e-85
2.47512e-84
-1.21231e-83
5.91784e-83
-2.879e-82
1.39585e-81
-6.74451e-81
3.24763e-80
-1.5584e-79
7.45212e-79
-3.55109e-78
1.68623e-77
-7.97883e-77
3.76198e-76
-1.76743e-75
8.2739e-75
-3.8593e-74
1.79362e-73
-8.30552e-73
3.83186e-72
-1.76136e-71
8.06633e-71
-3.68029e-70
1.67285e-69
-7.57519e-69
3.41728e-68
-1.53571e-67
6.87496e-67
-3.06586e-66
1.36191e-65
-6.02621e-65
2.65603e-64
-1.16602e-63
5.09855e-63
-2.22049e-62
9.63169e-62
-4.16097e-61
1.79026e-60
-7.67104e-60
3.2734e-59
-1.39104e-58
5.88655e-58
-2.48059e-57
1.0409e-56
-4.3492e-56
1.80945e-55
-7.4956e-55
3.09155e-54
-1.26954e-53
5.19037e-53
-2.11263e-52
8.56066e-52
-3.45332e-51
1.38675e-50
-5.54339e-50
2.20576e-49
-8.73633e-49
3.4441e-48
-1.35139e-47
5.27756e-47
-2.05123e-46
7.93436e-46
-3.05427e-45
1.17e-44
-4.45997e-44
1.69172e-43
-6.38495e-43
2.39775e-42
-8.95883e-42
3.33028e-41
-1.23161e-40
4.5312e-40
-1.65837e-39
6.03749e-39
-2.18636e-38
7.87516e-38
-2.82128e-37
1.00523e-36
-3.56199e-36
1.25519e-35
-4.39841e-35
1.53259e-34
-5.30986e-34
1.82911e-33
-6.26436e-33
2.13289e-32
-7.21925e-32
2.42897e-31
-8.12337e-31
2.70027e-30
-8.92089e-30
2.92897e-29
-9.55652e-29
3.09838e-28
-9.98142e-28
3.1948e-27
-1.01592e-26
3.20929e-26
-1.00708e-25
3.13898e-25
-9.71751e-25
2.98764e-24
-9.12169e-24
2.76542e-23
-8.32436e-23
2.48776e-22
-7.38066e-22
2.17358e-21
-6.35343e-21
1.84313e-20
-5.30607e-20
1.51573e-19
-4.29591e-19
1.2079e-18
-3.36902e-18
9.32016e-18
-2.55707e-17
6.95685e-17
-1.87663e-16
5.0187e-16
-1.33043e-15
3.49565e-15
-9.10202e-15
2.34834e-14
-6.00255e-14
1.51984e-13
-3.81134e-13
9.46475e-13
-2.32712e-12
5.66409e-12
-1.36448e-11
3.25275e-11
-7.67174e-11
1.78982e-10
-4.1296e-10
9.42091e-10
-2.12454e-09
4.73498e-09
-1.04266e-08
2.26793e-08
-4.8714e-08
1.03297e-07
-2.16174e-07
4.46326e-07
-9.08845e-07
1.82456e-06
-3.60982e-06
7.03551e-06
-1.3502e-05
2.55026e-05
-4.73849e-05
8.65613e-05
-0.000155375
0.000273864
-0.000473673
0.000803307
-0.00133468
0.00217048
-0.00345116
0.00535909
-0.00811619
0.0119695
-0.0171588
0.0238595
-0.0320987
0.0416489
-0.0519141
0.0618413
-0.0699042
0.0742154
-0.0728158
0.0641546
-0.0477047
0.0245679
0.00216677
-0.0275861
0.0458443
-0.051777
0.0428903
-0.021022
-0.00722312
0.0319599
-0.0434456
0.0364127
-0.0133582
-0.0153343
0.0354808
-0.0362228
0.0166971
0.0120908
-0.0326199
0.0315097
-0.00913498
-0.0191004
0.0325604
-0.0207378
-0.00732326
0.028661
-0.0248884
-0.000970081
0.0253852
-0.0250629
-3.17485e-06
0.0246029
-0.0228462
-0.00372743
0.0257137
-0.0176604
-0.0113241
0.0260834
-0.00776574
-0.0204757
0.0211661
0.007205
-0.0252977
0.00668855
0.0218679
-0.0170576
-0.0145215
0.022918
0.0064548
-0.0252119
0.000430181
0.0255195
-0.00536524
-0.0252853
0.00819766
0.0255217
-0.00889459
-0.0267458
0.00720287
0.0289084
-0.0025049
-0.0311526
-0.00602446
0.0313618
0.0186794
-0.0257592
-0.0334836
0.00952424
0.0434299
0.0195115
-0.0347768
-0.0518991
-0.00651488
0.056037
0.0690213
0.0107896
-0.0757883
-0.119006
-0.0686124
0.0773723
0.282442
0.495718
0.680189
0.814689
0.904967
0.952297
0.984103
0.987334
1.00572
0.987386
1.01704
0.97614
1.03211
0.958358
1.05192
0.938159
1.0699
0.925785
1.07282
0.935845
1.0477
0.975432
0.997833
1.02759
0.954156
1.05178
0.95711
1.02102
1.00722
0.96804
1.04345
0.963587
1.01336
1.01533
0.964519
1.03622
0.983303
0.987909
1.03262
0.96849
1.00913
1.0191
0.96744
1.02074
1.00732
0.971339
1.02489
1.00097
0.974615
1.02506
1
0.975397
1.02285
1.00373
0.974286
1.01766
1.01132
0.973917
1.00777
1.02048
0.978834
0.992795
1.0253
0.993311
0.978132
1.01706
1.01452
0.977082
0.993545
1.02521
0.99957
0.97448
1.00537
1.02529
0.991802
0.974478
1.00889
1.02675
0.992797
0.971092
1.0025
1.03115
1.00602
0.968638
0.981321
1.02576
1.03348
0.990476
0.95657
0.980488
1.03478
1.0519
1.00652
0.943961
0.930982
0.989203
1.0758
1.11898
1.06866
0.922541
0.717713
0.504008
0.320285
0.184507
0.0963679
0.0455321
0.0193479
0.00730648
0.00239388
0.000644187
0.000119792
9.43219e-08
-1.24919e-05
-6.86381e-06
-2.43393e-06
-6.09867e-07
-8.3757e-08
1.32006e-08
1.35336e-08
5.1927e-09
1.25448e-09
1.43904e-10
-3.47983e-11
-2.56576e-11
-8.09641e-12
-1.44683e-12
-6.99643e-15
9.68907e-14
3.76488e-14
7.78955e-15
4.49494e-16
-3.29412e-16
-1.45418e-16
-3.0993e-17
-2.02286e-18
1.12645e-18
4.923e-19
9.83123e-20
4.55704e-21
-3.89653e-21
-1.46743e-21
-2.49305e-22
-1.88651e-25
1.26221e-23
3.75373e-24
4.76846e-25
-4.42967e-26
-3.53822e-26
-7.86882e-27
-5.46527e-28
2.09148e-28
8.12105e-29
1.24567e-29
-2.55426e-31
-6.03301e-31
-1.4489e-31
-1.16938e-32
3.03914e-33
1.23515e-33
1.82416e-34
-4.55255e-36
-8.25293e-36
-1.79506e-36
-1.08765e-37
4.23328e-38
1.38577e-38
1.61674e-39
-1.37473e-40
-8.90277e-41
-1.49236e-41
-1.61873e-43
4.82736e-43
1.09933e-43
7.17101e-45
-2.16578e-45
-6.93387e-46
-7.34715e-47
7.32103e-48
3.85721e-48
5.50499e-49
-1.03856e-50
-1.91824e-50
-3.47568e-51
-9.80557e-53
8.56197e-53
1.94468e-53
1.19558e-54
-3.41152e-55
-9.88503e-56
-8.70481e-57
1.18898e-57
4.63249e-58
5.15294e-59
-3.42099e-60
-2.02119e-60
-2.68418e-61
6.53662e-63
8.26879e-63
1.27254e-63
5.41042e-66
-3.18959e-65
-5.59184e-66
-1.4141e-67
1.16548e-67
2.30361e-68
9.56944e-70
-4.05089e-70
-8.96685e-71
-4.88527e-72
1.34462e-72
3.31711e-73
2.15431e-74
-4.27954e-75
-1.17141e-75
-8.60145e-77
1.31161e-77
3.96301e-78
3.17961e-79
-3.88915e-80
-1.28812e-80
-1.10193e-81
1.12139e-82
4.03199e-83
3.60818e-84
-3.16106e-85
-1.21767e-85
-1.12206e-86
8.75693e-88
3.55329e-88
3.32558e-89
-2.39477e-90
-1.00305e-90
-9.41691e-92
6.48497e-93
2.74137e-93
2.55187e-94
-1.74097e-95
-7.25782e-96
-6.62478e-97
4.62954e-98
1.86198e-98
1.64844e-99
-1.21628e-100
-4.62937e-101
-3.93164e-102
3.14565e-103
1.11536e-103
8.98405e-105
-7.97711e-106
-2.60357e-106
-1.96476e-107
1.97607e-108
5.88618e-109
4.10504e-110
-4.76613e-111
-1.28833e-111
-8.17116e-113
1.11635e-113
2.72847e-114
1.54286e-115
-2.53414e-116
-5.58795e-117
-2.74443e-118
5.56693e-119
1.10593e-119
4.54563e-121
-1.1822e-121
-2.11348e-122
-6.85982e-124
2.42509e-124
3.89639e-125
8.99249e-127
-4.8028e-127
-6.92209e-128
-8.86693e-130
9.17953e-130
1.18339e-130
1.66986e-133
-1.69267e-132
-1.9435e-133
2.22998e-135
3.01046e-135
3.05919e-136
-8.0733e-138
-5.16275e-138
-4.60082e-139
2.0333e-140
8.53453e-141
6.58126e-142
-4.36345e-143
-1.35943e-143
-8.89289e-145
8.46755e-146
2.08539e-146
1.12238e-147
-1.52452e-148
-3.07874e-149
-1.29622e-150
2.58092e-151
4.37026e-152
1.31087e-153
-4.14072e-154
-5.9572e-155
-1.0226e-156
6.32644e-157
7.78413e-158
2.46217e-160
-9.23438e-160
-9.72587e-161
1.23162e-162
1.29042e-162
1.15776e-163
-3.62629e-165
-1.72868e-165
-1.30579e-166
7.11679e-168
2.2217e-168
1.383e-169
-1.17996e-170
-2.74008e-171
-1.35418e-172
1.76429e-173
3.24235e-174
1.18825e-175
-2.44523e-176
-3.67844e-177
-8.64585e-179
3.18591e-179
3.99567e-180
3.78989e-182
-3.93388e-182
-4.1465e-183
2.52408e-185
4.62635e-185
4.09671e-186
-9.92332e-188
-5.19808e-188
-3.83227e-189
1.78537e-190
5.59086e-191
3.36337e-192
-2.56462e-193
-5.76248e-194
-2.72442e-195
3.26083e-196
5.69368e-197
1.96992e-198
-3.81242e-199
-5.39128e-200
-1.16674e-201
4.17433e-202
4.88698e-203
3.84432e-205
-4.32393e-205
-4.23213e-206
3.14528e-208
4.26302e-208
3.48958e-209
-8.827e-211
-4.01575e-211
-2.72432e-212
1.29249e-213
3.62305e-214
1.99481e-215
-1.53724e-216
-3.13521e-217
-1.34652e-218
1.62888e-219
2.60399e-220
8.08331e-222
-1.59312e-222
-2.07581e-223
-3.92213e-225
1.46335e-225
1.58708e-226
9.54044e-229
-1.27476e-228
-1.16195e-229
9.57066e-232
1.05948e-231
8.12346e-233
-2.01092e-234
-8.43366e-235
-5.39847e-236
2.42879e-237
6.44631e-238
3.38402e-239
-2.42052e-240
-4.73921e-241
-1.97382e-242
2.16332e-243
3.35461e-244
1.04288e-245
-1.79209e-246
-2.28731e-247
-4.68169e-249
1.39896e-249
1.50223e-250
1.41723e-252
-1.03892e-252
-9.4979e-254
2.3044e-256
7.38377e-256
5.77369e-257
-9.03491e-259
-5.04234e-259
-3.36732e-260
1.04378e-261
3.31786e-262
1.87765e-263
-9.3252e-265
-2.10784e-265
-9.95395e-267
7.33348e-268
1.29484e-268
4.9693e-270
-5.3093e-271
-7.69965e-272
-2.29601e-273
3.61388e-274
4.43564e-275
9.46877e-277
-2.33982e-277
-2.47692e-278
-3.16347e-280
1.45142e-280
1.34119e-281
5.23413e-284
-8.66762e-284
-7.04284e-285
3.85283e-287
5.00023e-287
3.58637e-288
-5.59298e-290
-2.79368e-290
-1.77042e-291
4.74116e-293
1.51471e-293
8.46739e-295
-3.33874e-296
-7.98273e-297
-3.91972e-298
2.12075e-299
4.09483e-300
1.7537e-301
-1.25569e-302
-2.0469e-303
-7.56659e-305
7.04664e-306
9.98139e-307
3.13808e-308
-3.78428e-309
-4.7527e-310
-1.24466e-311
1.95694e-312
2.21177e-313
4.68287e-315
-9.7861e-316
-1.00687e-316
-1.64774e-318
4.74703e-319
4.4876e-320
5.18769e-322
-2.17389e-322
-1.4822e-323
0
0
0
0
0
0
0
0
0
0
0
0
0
0
0
0
0
0
0
0
0
0
0
0
0
0
0
0
0
0
0
0
0
0
0
0
0
0
0
0
0
0
0
0
0
0
0
0
0
0
0
0
)
;

boundaryField
{
    sides
    {
        type            zeroGradient;
    }
    empty
    {
        type            empty;
    }
}


// ************************************************************************* //
