/*--------------------------------*- C++ -*----------------------------------*\
| =========                 |                                                 |
| \\      /  F ield         | OpenFOAM: The Open Source CFD Toolbox           |
|  \\    /   O peration     | Version:  2312                                  |
|   \\  /    A nd           | Website:  www.openfoam.com                      |
|    \\/     M anipulation  |                                                 |
\*---------------------------------------------------------------------------*/
FoamFile
{
    version     2.0;
    format      ascii;
    arch        "LSB;label=32;scalar=64";
    class       volScalarField;
    location    "0.4";
    object      T;
}
// * * * * * * * * * * * * * * * * * * * * * * * * * * * * * * * * * * * * * //

dimensions      [0 0 0 1 0 0 0];

internalField   nonuniform List<scalar> 
1000
(
0
0
0
0
0
0
0
0
0
0
0
0
0
0
0
0
0
0
0
0
0
0
0
0
0
0
0
0
0
0
0
0
0
0
0
0
0
0
0
0
0
0
0
0
0
0
0
0
0
0
0
0
0
0
0
0
0
0
0
0
0
0
0
0
0
0
0
0
0
0
0
0
0
0
0
0
0
0
0
0
0
0
0
0
0
0
0
0
0
0
0
0
0
0
0
0
0
0
0
0
0
0
0
0
0
0
0
0
0
0
0
0
0
0
0
0
0
0
0
0
0
0
0
0
0
0
0
0
0
0
0
0
0
0
0
0
0
0
0
0
0
0
0
0
0
0
0
0
0
0
0
0
0
0
0
0
0
0
0
0
0
0
0
0
0
0
0
0
0
0
0
0
0
-4.94066e-324
2.96439e-323
-4.94066e-324
2.96439e-323
-4.94066e-324
2.96439e-323
-4.94066e-324
2.96439e-323
-4.94066e-324
2.96439e-323
-4.94066e-324
2.96439e-323
-8.39912e-323
1.33398e-321
-1.70156e-320
2.19197e-319
-2.81961e-318
3.62747e-317
-4.66675e-316
6.00379e-315
-7.72391e-314
9.93684e-313
-1.27838e-311
1.64464e-310
-2.11584e-309
2.72203e-308
-3.50191e-307
4.50522e-306
-5.79598e-305
7.45655e-304
-9.59289e-303
1.23413e-301
-1.58771e-300
2.0426e-299
-2.62781e-298
3.38069e-297
-4.34927e-296
5.59536e-295
-7.19845e-294
9.26084e-293
-1.19141e-291
1.53276e-290
-1.9719e-289
2.53685e-288
-3.26367e-287
4.19873e-286
-5.40168e-285
6.94929e-284
-8.94029e-283
1.15017e-281
-1.4797e-280
1.90364e-279
-2.44904e-278
3.15071e-277
-4.0534e-276
5.21471e-275
-6.70875e-274
8.63083e-273
-1.11036e-271
1.42848e-270
-1.83775e-269
2.36427e-268
-3.04165e-267
3.91309e-266
-5.03421e-265
6.47653e-264
-8.33209e-263
1.07193e-261
-1.37904e-260
1.77414e-259
-2.28244e-258
2.93637e-257
-3.77765e-256
4.85996e-255
-6.25236e-254
8.04368e-253
-1.03482e-251
1.3313e-250
-1.71273e-249
2.20343e-248
-2.83473e-247
3.64689e-246
-4.69174e-245
6.03594e-244
-7.76526e-243
9.99004e-242
-1.28522e-240
1.65345e-239
-2.12716e-238
2.73661e-237
-3.52066e-236
4.52934e-235
-5.82701e-234
7.49648e-233
-9.64425e-232
1.24074e-230
-1.59621e-229
2.05354e-228
-2.64188e-227
3.39879e-226
-4.37256e-225
5.62532e-224
-7.237e-223
9.31043e-222
-1.19779e-220
1.54096e-219
-1.98245e-218
2.55044e-217
-3.28115e-216
4.22121e-215
-5.43061e-214
6.9865e-213
-8.98816e-212
1.15633e-210
-1.48762e-209
1.91383e-208
-2.46216e-207
3.16758e-206
-4.0751e-205
5.24263e-204
-6.74467e-203
8.67705e-202
-1.11631e-200
1.43613e-199
-1.84759e-198
2.37693e-197
-3.05793e-196
3.93404e-195
-5.06117e-194
6.51121e-193
-8.3767e-192
1.07767e-190
-1.38642e-189
1.78364e-188
-2.29466e-187
2.95209e-186
-3.79787e-185
4.88598e-184
-6.28583e-183
8.08675e-182
-1.04036e-180
1.33843e-179
-1.7219e-178
2.21523e-177
-2.8499e-176
3.66641e-175
-4.71686e-174
6.06826e-173
-7.80684e-172
1.00435e-170
-1.2921e-169
1.6623e-168
-2.13855e-167
2.75126e-166
-3.53951e-165
4.55359e-164
-5.85821e-163
7.53662e-162
-9.69589e-161
1.24738e-159
-1.60476e-158
2.06453e-157
-2.65603e-156
3.41699e-155
-4.39597e-154
5.65544e-153
-7.27575e-152
9.36028e-151
-1.2042e-149
1.54921e-148
-1.99307e-147
2.56409e-146
-3.29872e-145
4.24381e-144
-5.45968e-143
7.0239e-142
-9.03628e-141
1.16252e-139
-1.49559e-138
1.92408e-137
-2.47534e-136
3.18453e-135
-4.09692e-134
5.2707e-133
-6.78078e-132
8.7235e-131
-1.12228e-129
1.44382e-128
-1.85748e-127
2.38966e-126
-3.07431e-125
3.95511e-124
-5.08826e-123
6.54607e-122
-8.42155e-121
1.08344e-119
-1.39385e-118
1.79319e-117
-2.30694e-116
2.96789e-115
-3.81821e-114
4.91214e-113
-6.31949e-112
8.13005e-111
-1.04593e-109
1.3456e-108
-1.73112e-107
2.22709e-106
-2.86516e-105
3.68604e-104
-4.74211e-103
6.10075e-102
-7.84864e-101
1.00973e-99
-1.29902e-98
1.6712e-97
-2.15e-96
2.76599e-95
-3.55846e-94
4.57797e-93
-5.88958e-92
7.57697e-91
-9.7478e-90
1.25406e-88
-1.61335e-87
2.07558e-86
-2.67025e-85
3.43529e-84
-4.41951e-83
5.68572e-82
-7.3147e-81
9.41039e-80
-1.21065e-78
1.55751e-77
-2.00374e-76
2.57782e-75
-3.31638e-74
4.26653e-73
-5.48891e-72
7.06151e-71
-9.08467e-70
1.16875e-68
-1.5036e-67
1.93438e-66
-2.48859e-65
3.20159e-64
-4.11885e-63
5.29892e-62
-6.81709e-61
8.77021e-60
-1.12829e-58
1.45155e-57
-1.86743e-56
2.40245e-55
-3.09077e-54
3.97628e-53
-5.11551e-52
6.58112e-51
-8.46664e-50
1.08924e-48
-1.40131e-47
1.80279e-46
-2.3193e-45
2.98378e-44
-3.83865e-43
4.93844e-42
-6.35332e-41
8.17358e-40
-1.05153e-38
1.3528e-37
-1.74039e-36
2.23902e-35
-2.8805e-34
3.70578e-33
-4.7675e-32
6.13341e-31
-8.98637e-29
2.18481e-22
2.01036e-20
9.08425e-19
2.68651e-17
5.8466e-16
9.98225e-15
1.39201e-13
1.62974e-12
1.63428e-11
1.42495e-10
1.09299e-09
7.44365e-09
4.53463e-08
2.48601e-07
1.23257e-06
5.54891e-06
2.27568e-05
8.52415e-05
0.000292222
0.000918238
0.00264746
0.00700796
0.0170336
0.0380069
0.0777972
0.145935
0.250529
0.393012
0.562609
0.734477
0.875773
0.961464
0.993742
0.999611
0.999993
1
1
1
1
1
1
1
1
1
1
1
1
1
1
1
1
1
1
1
1
1
1
1
1
1
1
1
1
1
1
1
1
1
1
1
1
1
1
1
1
1
1
1
1
1
1
1
1
1
1
1
1
1
1
1
1
1
1
1
1
1
1
1
1
1
1
1
1
1
1
1
1
1
1
1
1
1
1
1
0.999999
0.999994
0.999977
0.999914
0.999706
0.999078
0.997343
0.992971
0.982923
0.961912
0.922068
0.853867
0.749213
0.606698
0.437116
0.265311
0.124104
0.0384892
0.00624862
0.000388644
6.61487e-06
2.27167e-08
1.22913e-11
1.08488e-15
9.42195e-20
8.06928e-24
6.83192e-28
5.73358e-32
4.78249e-36
3.97478e-40
3.29845e-44
2.73721e-48
2.27358e-52
1.89096e-56
1.57474e-60
1.3127e-64
1.09492e-68
9.13464e-73
7.62028e-77
6.35533e-81
5.29855e-85
4.41596e-89
3.67925e-93
3.06471e-97
2.55235e-101
2.12538e-105
1.76966e-109
1.47337e-113
1.22659e-117
1.02105e-121
8.49872e-126
7.07314e-130
5.88597e-134
4.89743e-138
4.07436e-142
3.38915e-146
2.8188e-150
2.34411e-154
1.9491e-158
1.62043e-162
1.34701e-166
1.11957e-170
9.30414e-175
7.73112e-179
6.42318e-183
5.33579e-187
4.43189e-191
3.68061e-195
3.05626e-199
2.53748e-203
2.10646e-207
1.74842e-211
1.45103e-215
1.20406e-219
9.98984e-224
8.28721e-228
6.87381e-232
5.70067e-236
4.72708e-240
3.91921e-244
3.24895e-248
2.69293e-252
2.23175e-256
1.84928e-260
1.53214e-264
1.2692e-268
1.05124e-272
8.70573e-277
7.20852e-281
5.96791e-285
4.94008e-289
4.08864e-293
3.38344e-297
2.79944e-301
2.31588e-305
1.91555e-309
1.58418e-313
1.30992e-317
1.07706e-321
0
0
0
0
0
0
0
0
0
0
0
0
0
0
0
0
0
0
0
0
0
0
0
0
0
0
0
0
0
0
0
0
0
0
0
0
0
0
0
0
0
0
0
0
0
0
0
0
0
0
0
0
0
0
0
0
0
0
0
0
0
0
0
0
0
0
0
0
0
0
0
0
0
0
0
0
0
0
0
0
0
0
0
0
0
0
0
0
0
0
0
0
0
0
0
0
0
0
0
0
0
0
0
0
0
0
0
0
0
0
0
0
0
0
0
0
0
0
0
0
0
0
0
0
0
0
0
0
0
0
0
0
0
0
0
0
0
0
0
0
0
0
0
0
0
0
0
0
0
0
0
0
0
0
0
0
0
0
0
0
0
0
0
0
0
0
0
0
0
0
0
0
0
0
0
0
0
0
0
0
0
0
0
0
0
0
0
0
0
0
0
0
0
0
0
0
0
0
0
0
0
0
0
0
0
0
0
0
0
0
0
0
0
0
0
0
0
0
0
0
0
0
0
0
0
0
0
0
0
0
0
0
0
0
0
0
0
0
0
0
0
0
0
0
0
0
0
0
0
0
0
0
0
0
0
0
0
0
0
0
0
0
0
0
0
0
0
0
0
0
0
0
0
0
0
0
0
0
0
0
0
0
0
0
0
0
0
0
0
0
0
0
0
0
0
0
0
0
0
0
0
0
0
0
0
0
0
0
0
0
0
0
0
0
0
0
0
0
0
0
0
0
0
0
0
0
0
0
0
0
0
0
0
0
0
0
0
)
;

boundaryField
{
    sides
    {
        type            zeroGradient;
    }
    empty
    {
        type            empty;
    }
}


// ************************************************************************* //
