/*--------------------------------*- C++ -*----------------------------------*\
| =========                 |                                                 |
| \\      /  F ield         | OpenFOAM: The Open Source CFD Toolbox           |
|  \\    /   O peration     | Version:  2312                                  |
|   \\  /    A nd           | Website:  www.openfoam.com                      |
|    \\/     M anipulation  |                                                 |
\*---------------------------------------------------------------------------*/
FoamFile
{
    version     2.0;
    format      ascii;
    arch        "LSB;label=32;scalar=64";
    class       volScalarField;
    location    "3.7";
    object      T;
}
// * * * * * * * * * * * * * * * * * * * * * * * * * * * * * * * * * * * * * //

dimensions      [0 0 0 1 0 0 0];

internalField   nonuniform List<scalar> 
1000
(
6.00895e-302
-1.84726e-301
1.48537e-300
-1.09025e-299
8.01568e-299
-5.8731e-298
4.28962e-297
-3.1231e-296
2.26654e-295
-1.63964e-294
1.18231e-293
-8.49793e-293
6.08816e-292
-4.34756e-291
3.09447e-290
-2.19535e-289
1.55236e-288
-1.09408e-287
7.68541e-287
-5.38073e-286
3.75463e-285
-2.61119e-284
1.80988e-283
-1.25025e-282
8.60746e-282
-5.90578e-281
4.03829e-280
-2.75189e-279
1.86884e-278
-1.26478e-277
8.53013e-277
-5.73305e-276
3.83972e-275
-2.56267e-274
1.70435e-273
-1.12951e-272
7.45901e-272
-4.90826e-271
3.21826e-270
-2.1026e-269
1.36876e-268
-8.87819e-268
5.73779e-267
-3.69471e-266
2.37041e-265
-1.5152e-264
9.64961e-264
-6.12263e-263
3.87032e-262
-2.43741e-261
1.52925e-260
-9.55841e-260
5.95175e-259
-3.69189e-258
2.28133e-257
-1.40429e-256
8.61086e-256
-5.25956e-255
3.20005e-254
-1.93937e-253
1.17073e-252
-7.03929e-252
4.21575e-251
-2.51469e-250
1.49399e-249
-8.84011e-249
5.2096e-248
-3.05759e-247
1.7872e-246
-1.04034e-245
6.03085e-245
-3.48154e-244
2.00145e-243
-1.14575e-242
6.53122e-242
-3.70724e-241
2.0953e-240
-1.17916e-239
6.60717e-239
-3.6861e-238
2.04747e-237
-1.13227e-236
6.23392e-236
-3.41691e-235
1.86447e-234
-1.01279e-233
5.47655e-233
-2.94788e-232
1.57948e-231
-8.42379e-231
4.47174e-230
-2.3627e-229
1.24248e-228
-6.50283e-228
3.38717e-227
-1.75582e-226
9.05757e-226
-4.64966e-225
2.37515e-224
-1.20728e-223
6.10594e-223
-3.07263e-222
1.53839e-221
-7.66303e-221
3.79749e-220
-1.87214e-219
9.18132e-219
-4.47899e-218
2.17341e-217
-1.049e-216
5.03564e-216
-2.40416e-215
1.14151e-214
-5.38992e-214
2.53074e-213
-1.18155e-212
5.48501e-212
-2.5316e-211
1.16166e-210
-5.2992e-210
2.40302e-209
-1.08316e-208
4.85281e-208
-2.16086e-207
9.56237e-207
-4.20511e-206
1.83752e-205
-7.97806e-205
3.44143e-204
-1.47476e-203
6.27781e-203
-2.65438e-202
1.11467e-201
-4.64858e-201
1.92504e-200
-7.91516e-200
3.231e-199
-1.30925e-198
5.26585e-198
-2.10194e-197
8.32577e-197
-3.27207e-196
1.27572e-195
-4.93355e-195
1.8922e-194
-7.19627e-194
2.71335e-193
-1.01411e-192
3.75625e-192
-1.37857e-191
5.01202e-191
-1.80468e-190
6.434e-190
-2.27057e-189
7.92929e-189
-2.73928e-188
9.3581e-188
-3.16024e-187
1.0545e-186
-3.47505e-186
1.1304e-185
-3.62745e-185
1.14756e-184
-3.57612e-184
1.09679e-183
-3.30715e-183
9.79163e-183
-2.84228e-182
8.07379e-182
-2.239e-181
6.04302e-181
-1.58075e-180
3.98387e-180
-9.58751e-180
2.17124e-179
-4.50327e-179
8.04494e-179
-1.00698e-178
-3.64009e-179
8.52694e-178
-3.96908e-177
1.38496e-176
-4.14718e-176
1.10424e-175
-2.61659e-175
5.35105e-175
-8.48131e-175
5.33572e-175
3.05762e-174
-1.81192e-173
6.59288e-173
-1.92577e-172
4.73543e-172
-9.56032e-172
1.35711e-171
-3.94664e-173
-8.73112e-171
4.06306e-170
-1.29879e-169
3.29631e-169
-6.5607e-169
8.30328e-169
5.2193e-169
-7.77314e-168
3.15372e-167
-9.05571e-167
1.98542e-166
-2.92909e-166
5.90813e-168
1.87404e-165
-8.25545e-165
2.39137e-164
-5.05831e-164
6.44927e-164
4.84719e-164
-6.24023e-163
2.35539e-162
-6.00975e-162
1.03266e-161
-4.97455e-162
-4.53691e-161
2.21711e-160
-6.32975e-160
1.20656e-159
-9.35927e-160
-3.85762e-159
2.17602e-158
-6.40821e-158
1.21407e-157
-8.26816e-158
-4.39092e-157
2.28231e-156
-6.30856e-156
1.05606e-155
-1.76422e-156
-5.98442e-155
2.45258e-154
-5.77376e-154
6.91697e-154
9.67829e-154
-8.06847e-153
2.47543e-152
-4.35017e-152
9.41721e-153
2.37124e-151
-9.48204e-151
2.0559e-150
-1.71207e-150
-6.50339e-150
3.45975e-149
-8.61379e-149
9.84892e-149
1.78449e-148
-1.25527e-147
3.39827e-147
-4.35683e-147
-5.55711e-147
4.65937e-146
-1.29574e-145
1.65932e-145
2.21118e-145
-1.78812e-144
4.80254e-144
-5.47631e-144
-1.08095e-143
7.02753e-143
-1.70993e-142
1.44e-142
5.64668e-142
-2.75591e-141
5.66225e-141
-1.81249e-141
-2.85575e-140
1.03897e-139
-1.62485e-139
-1.08097e-139
1.33126e-138
-3.58058e-138
3.27173e-138
1.13536e-137
-5.52832e-137
1.035e-136
1.29878e-137
-6.63087e-136
1.95003e-135
-1.94646e-135
-5.81795e-135
2.9159e-134
-5.23018e-134
-1.90508e-134
3.68841e-133
-9.69269e-133
6.29458e-133
3.94793e-132
-1.51314e-131
1.99055e-131
3.31414e-131
-2.11925e-130
4.00048e-130
1.35516e-130
-2.74213e-129
6.77403e-129
-2.41509e-129
-3.33378e-128
1.04574e-127
-8.55482e-128
-3.8545e-127
1.52671e-126
-1.77266e-126
-4.28883e-126
2.15482e-125
-3.07359e-125
-4.67132e-125
2.98546e-124
-4.85556e-124
-5.12979e-124
4.10579e-123
-7.22961e-123
-5.95786e-123
5.64817e-122
-1.0304e-121
-7.73295e-122
7.80462e-121
-1.41408e-120
-1.14973e-120
1.08371e-119
-1.86632e-119
-1.90137e-119
1.50715e-118
-2.34824e-118
-3.30809e-118
2.08533e-117
-2.76084e-117
-5.78331e-117
2.84242e-116
-2.90182e-116
-9.88215e-116
3.76672e-115
-2.41048e-115
-1.62477e-114
4.76567e-114
-7.15258e-115
-2.54287e-113
5.59835e-113
2.97905e-113
-3.74801e-112
5.79317e-112
9.59294e-112
-5.12673e-111
4.58265e-111
1.98555e-110
-6.3489e-110
9.2652e-111
3.36534e-109
-6.76736e-109
-6.25818e-109
4.9007e-108
-5.3846e-108
-1.75182e-107
6.08796e-107
-1.01083e-107
-3.1862e-106
6.04924e-106
7.22948e-106
-4.55089e-105
3.64203e-105
1.89512e-104
-5.10543e-104
-2.09142e-104
3.12911e-103
-3.83308e-103
-1.10463e-102
3.80936e-102
1.467e-103
-2.09398e-101
3.07629e-101
6.77489e-101
-2.66559e-100
2.18286e-101
1.40948e-99
-2.1255e-99
-4.60845e-99
1.78602e-98
2.36718e-100
-9.62852e-98
1.27931e-97
3.46529e-97
-1.13845e-96
-3.81439e-97
6.56642e-96
-6.23649e-96
-2.72277e-95
6.65839e-95
6.41006e-95
-4.29929e-94
1.66479e-94
2.08288e-93
-3.26487e-93
-7.31575e-93
2.53571e-92
1.07528e-92
-1.45022e-91
9.76801e-92
6.58847e-91
-1.191e-90
-2.24102e-90
8.4636e-90
3.39273e-90
-4.74145e-89
2.73386e-89
2.21135e-88
-3.44774e-88
-8.3687e-88
2.52674e-87
2.13725e-87
-1.48808e-86
1.40612e-87
7.55624e-86
-6.79592e-86
-3.35026e-85
6.07395e-85
1.25952e-84
-4.0419e-84
-3.52052e-84
2.31367e-83
1.97806e-84
-1.19218e-82
6.84616e-83
5.61834e-82
-6.99481e-82
-2.42042e-81
4.97947e-81
9.35379e-81
-3.03983e-80
-3.05405e-80
1.69245e-79
6.64545e-80
-8.82911e-79
9.29727e-80
4.37772e-78
-2.43861e-78
-2.08011e-77
2.08777e-77
9.51788e-77
-1.40692e-76
-4.20472e-76
8.47288e-76
1.79482e-75
-4.77202e-75
-7.39562e-75
2.56986e-74
2.9327e-74
-1.34047e-73
-1.11247e-73
6.82983e-73
3.99314e-73
-3.41953e-72
-1.32923e-72
1.68995e-71
3.93611e-72
-8.27244e-71
-9.29316e-72
4.02165e-70
9.87264e-72
-1.9456e-69
6.12995e-71
9.37958e-69
-5.26858e-70
-4.50948e-68
2.23343e-69
2.16248e-67
-2.51904e-69
-1.03388e-66
-5.92941e-68
4.9228e-66
7.75103e-67
-2.3305e-65
-6.7364e-66
1.09436e-64
4.96319e-65
-5.08168e-64
-3.32353e-64
2.32408e-63
2.08431e-63
-1.04138e-62
-1.24307e-62
4.53892e-62
7.10948e-62
-1.90412e-61
-3.91679e-61
7.55828e-61
2.08261e-60
-2.74982e-60
-1.0687e-59
8.50672e-60
5.28271e-59
-1.67852e-59
-2.50545e-58
-3.69316e-59
1.13225e-57
7.19371e-58
-4.81838e-57
-5.77388e-57
1.88992e-56
3.66226e-56
-6.5304e-56
-2.03897e-55
1.74991e-55
1.02863e-54
-1.49193e-55
-4.73272e-54
-2.42164e-54
1.9648e-53
2.43018e-53
-7.10143e-53
-1.59387e-52
2.00773e-52
8.59819e-52
-2.40206e-52
-4.00532e-51
-2.0981e-51
1.60429e-50
2.24265e-50
-5.20567e-50
-1.43028e-49
1.05169e-49
7.20381e-49
1.83956e-49
-2.98385e-48
-3.56362e-48
9.65752e-48
2.47311e-47
-1.79647e-47
-1.24941e-46
-4.71565e-47
4.92046e-46
7.10073e-46
-1.37697e-45
-4.51095e-45
1.06155e-45
2.04759e-44
1.80689e-44
-6.71603e-44
-1.5311e-43
1.09695e-43
7.77426e-43
4.51255e-43
-2.74895e-42
-5.22459e-42
5.19353e-42
2.83945e-41
1.37524e-41
-1.01526e-40
-1.87601e-40
1.80538e-40
1.01806e-39
5.98895e-40
-3.42165e-39
-7.11595e-39
4.39763e-39
3.54419e-38
3.14672e-38
-1.01162e-37
-2.73497e-37
1.95259e-38
1.14562e-36
1.60632e-36
-2.27364e-36
-9.93407e-36
-5.83941e-36
3.12386e-35
7.18039e-35
-1.38851e-35
-3.10419e-34
-4.37138e-34
5.42064e-34
2.62212e-33
2.11601e-33
-6.94698e-33
-1.99276e-32
-5.84856e-33
6.88733e-32
1.40338e-31
-3.00187e-32
-6.0296e-31
-9.35013e-31
7.11276e-31
4.90887e-30
6.01189e-30
-8.22246e-30
-3.82324e-29
-3.82311e-29
7.68965e-29
2.90116e-28
2.48431e-28
-6.4217e-28
-2.17089e-27
-1.71194e-27
4.95221e-27
1.6126e-26
1.28388e-26
-3.55725e-26
-1.19046e-25
-1.045e-25
2.35772e-25
8.69197e-25
8.96066e-25
-1.39171e-24
-6.20856e-24
-7.7902e-24
6.58285e-24
4.26092e-23
6.64207e-23
-1.40106e-23
-2.73016e-22
-5.40865e-22
-1.87262e-22
1.55066e-21
4.10387e-21
3.53007e-21
-6.86898e-21
-2.81291e-20
-3.91226e-20
1.12478e-20
1.65011e-19
3.40561e-19
2.05961e-19
-7.21242e-19
-2.41724e-18
-3.17487e-18
9.1955e-19
1.32695e-17
2.86615e-17
2.31921e-17
-4.27721e-17
-1.84357e-16
-3.05616e-16
-1.2287e-16
7.38661e-16
2.26131e-15
3.16604e-15
3.35586e-16
-9.82358e-15
-2.61627e-14
-3.41177e-14
-5.10289e-16
1.12197e-13
2.93562e-13
3.96764e-13
7.57951e-14
-1.10195e-12
-3.17238e-12
-4.86987e-12
-2.75085e-12
8.3467e-12
3.14534e-11
5.87175e-11
5.97831e-11
-2.30482e-11
-2.53366e-10
-6.29064e-10
-9.52744e-10
-6.90188e-10
1.0387e-09
5.07878e-09
1.11749e-08
1.61379e-08
1.18005e-08
-1.54938e-08
-8.06474e-08
-1.86638e-07
-2.99475e-07
-3.13962e-07
-2.51048e-08
8.61148e-07
2.62249e-06
5.2514e-06
7.96802e-06
8.52819e-06
2.49063e-06
-1.71404e-05
-5.91328e-05
-0.000130944
-0.000231832
-0.00034052
-0.000396008
-0.000270963
0.000261469
0.00156447
0.00417269
0.00881799
0.0164369
0.02815
0.045207
0.0688929
0.100399
0.140671
0.190245
0.249107
0.316582
0.3913
0.471229
0.553802
0.636112
0.715169
0.788171
0.852773
0.907289
0.950828
0.983326
1.00548
1.01861
1.02445
1.02491
1.02187
1.01701
1.01164
1.00672
1.00278
1.00004
0.998451
0.997809
0.997834
0.998244
0.998803
0.999344
0.999772
1.00005
1.00019
1.00023
1.0002
1.00014
1.00008
1.00003
0.999993
0.999979
0.999976
0.999981
0.999988
0.999995
0.999999
1
1
1
1
1
1
1
1
1
1
1
1
1
1
1
1
1
1
1
1
1
1
1
1
1
1
1
1
1
1
1
1
1
0.999999
0.999997
0.999995
0.999992
0.999991
0.999998
1.00002
1.00006
1.00013
1.00023
1.00034
1.0004
1.00027
0.999739
0.998436
0.995827
0.991182
0.983563
0.97185
0.954793
0.931107
0.899601
0.859329
0.809755
0.750893
0.683418
0.6087
0.528771
0.446198
0.363888
0.284831
0.211829
0.147227
0.0927112
0.0491722
0.0166743
-0.00548227
-0.0186146
-0.0244528
-0.0249121
-0.021874
-0.0170065
-0.0116412
-0.006716
-0.00277854
-3.86665e-05
0.00154889
0.00219063
0.00216588
0.00175597
0.00119687
0.000655845
0.00022824
-5.17014e-05
-0.00019288
-0.000228077
-0.00019757
-0.000137769
-7.52401e-05
-2.52573e-05
6.61757e-06
2.14926e-05
2.39162e-05
1.92668e-05
1.20998e-05
5.42815e-06
7.0022e-07
-1.82649e-06
-2.58624e-06
-2.26226e-06
-1.48791e-06
-7.02739e-07
-1.29113e-07
1.8119e-07
2.76402e-07
2.4109e-07
1.53786e-07
6.74796e-08
7.27007e-09
-2.26492e-08
-2.93993e-08
-2.33678e-08
-1.33315e-08
-4.6069e-09
7.64312e-10
2.90743e-09
2.91114e-09
1.9588e-09
8.94603e-10
1.33235e-10
-2.41089e-10
-3.20494e-10
-2.4495e-10
-1.28378e-10
-3.44043e-11
1.72491e-11
3.28313e-11
2.76733e-11
1.56328e-11
5.02735e-12
-1.15525e-12
-3.26157e-12
-2.91918e-12
-1.69978e-12
-5.74986e-13
9.17221e-14
3.23181e-13
2.92377e-13
1.68482e-13
5.4971e-14
-1.07366e-14
-3.21716e-14
-2.79025e-14
-1.52766e-14
-4.37935e-15
1.53279e-15
3.17197e-15
2.51822e-15
1.25354e-15
2.68878e-16
-2.09393e-16
-3.01638e-16
-2.11436e-16
-9.04808e-17
-8.31517e-18
2.52503e-17
2.68711e-17
1.61085e-17
5.38186e-18
-7.73882e-19
-2.64929e-18
-2.17941e-18
-1.07096e-18
-2.13906e-19
1.81489e-19
2.40945e-19
1.55895e-19
5.75045e-20
-2.09872e-21
-2.17621e-20
-1.88154e-20
-9.37334e-21
-1.93231e-21
1.47128e-21
1.95757e-21
1.23107e-21
4.24656e-22
-4.00383e-23
-1.76657e-22
-1.4052e-22
-6.34645e-23
-8.54771e-24
1.34854e-23
1.43873e-23
7.92528e-24
2.09138e-24
-7.85999e-25
-1.34138e-24
-8.81669e-25
-3.13636e-25
1.7772e-26
1.14592e-25
9.00501e-26
3.87848e-26
3.86099e-27
-8.96086e-27
-8.59508e-27
-4.27752e-27
-8.40513e-28
6.3501e-28
7.76092e-28
4.35423e-28
1.1522e-28
-3.9685e-29
-6.69334e-29
-4.16982e-29
-1.31707e-29
2.02933e-30
5.56013e-30
3.80328e-30
1.35251e-30
-6.17961e-32
-4.48424e-31
-3.33285e-31
-1.28798e-31
-2.8197e-33
3.5387e-32
2.82419e-32
1.15656e-32
7.51798e-34
-2.75319e-33
-2.32537e-33
-9.88926e-34
-9.02232e-35
2.12631e-34
1.86692e-34
8.09984e-35
8.45679e-36
-1.63865e-35
-1.46483e-35
-6.37665e-36
-6.78775e-37
1.26362e-36
1.12452e-36
4.83263e-37
4.7426e-38
-9.74908e-38
-8.44664e-38
-3.52551e-38
-2.79858e-39
7.50386e-39
6.202e-39
2.47167e-39
1.21473e-40
-5.73436e-40
-4.44336e-40
-1.65954e-40
-8.41449e-43
4.32555e-41
3.09793e-41
1.06083e-41
-6.10259e-43
-3.20129e-42
-2.09596e-42
-6.36661e-43
1.42962e-43
)
;

boundaryField
{
    sides
    {
        type            zeroGradient;
    }
    empty
    {
        type            empty;
    }
}


// ************************************************************************* //
