/*--------------------------------*- C++ -*----------------------------------*\
| =========                 |                                                 |
| \\      /  F ield         | OpenFOAM: The Open Source CFD Toolbox           |
|  \\    /   O peration     | Version:  2312                                  |
|   \\  /    A nd           | Website:  www.openfoam.com                      |
|    \\/     M anipulation  |                                                 |
\*---------------------------------------------------------------------------*/
FoamFile
{
    version     2.0;
    format      ascii;
    arch        "LSB;label=32;scalar=64";
    class       volScalarField;
    location    "1.6";
    object      T;
}
// * * * * * * * * * * * * * * * * * * * * * * * * * * * * * * * * * * * * * //

dimensions      [0 0 0 1 0 0 0];

internalField   nonuniform List<scalar> 
1000
(
0
0
0
0
0
0
0
0
0
0
0
0
0
0
0
0
0
0
0
0
0
0
0
0
0
0
0
0
0
0
0
0
0
0
0
0
0
0
0
0
0
0
0
0
0
0
0
0
0
0
0
0
0
0
0
0
0
0
0
0
0
0
0
0
0
0
0
0
0
0
0
0
0
0
0
0
0
0
0
0
0
0
0
0
0
0
0
0
0
0
0
0
0
0
0
0
0
0
0
0
0
0
0
0
0
0
0
0
0
0
0
0
0
0
0
0
0
0
0
0
0
0
0
0
0
0
0
0
0
0
0
0
0
0
0
0
0
0
0
0
0
0
0
0
0
0
0
0
0
0
0
0
0
0
0
0
0
0
0
0
0
0
0
0
0
0
0
0
0
0
0
0
0
0
0
0
0
0
0
0
0
0
0
0
0
0
0
0
0
0
0
0
0
0
0
0
0
0
0
0
0
0
0
0
0
0
0
0
0
0
0
0
0
0
0
0
0
0
0
0
0
0
0
0
0
0
0
0
0
0
0
0
0
0
0
0
0
0
0
0
0
0
0
0
0
0
0
0
0
0
0
0
0
0
0
0
0
0
0
0
0
0
0
0
0
0
0
0
0
0
0
0
0
0
0
0
0
0
0
0
0
0
0
0
0
0
0
0
0
0
0
0
0
0
0
0
0
0
0
0
0
0
0
0
0
0
0
0
0
0
0
0
0
0
0
0
0
0
0
0
0
0
0
0
0
0
0
0
0
0
0
0
0
0
0
0
0
0
0
0
0
0
0
0
0
0
0
0
0
0
0
0
0
0
0
0
0
0
0
0
0
0
0
0
0
0
0
0
0
0
0
0
0
0
0
0
0
0
0
0
0
0
0
0
0
0
0
0
0
0
0
0
0
0
0
0
0
0
0
0
0
0
0
0
1.01718e-76
-6.82827e-61
4.10298e-53
-2.41747e-49
-1.43109e-48
3.59646e-46
1.53218e-44
3.51613e-43
5.66647e-42
7.08449e-41
7.24137e-40
6.24287e-39
4.6252e-38
2.97357e-37
1.66127e-36
7.99114e-36
3.2135e-35
9.87978e-35
1.46176e-34
-8.11386e-34
-9.47646e-33
-6.11152e-32
-3.17087e-31
-1.45171e-30
-6.10356e-30
-2.40344e-29
-8.93323e-29
-3.13278e-28
-1.03076e-27
-3.15556e-27
-8.9058e-27
-2.29692e-26
-5.38256e-26
-1.15165e-25
-2.3351e-25
-4.98715e-25
-1.29137e-24
-4.03844e-24
-1.31287e-23
-3.93972e-23
-1.02975e-22
-2.24265e-22
-3.71514e-22
-3.05398e-22
7.36832e-22
4.42405e-21
1.31464e-20
2.74123e-20
3.71884e-20
2.77611e-21
-1.73966e-19
-6.66468e-19
-1.65901e-18
-3.05946e-18
-3.80718e-18
-6.05576e-19
1.38035e-17
5.10351e-17
1.20367e-16
2.04124e-16
2.05252e-16
-4.15927e-16
-2.12368e-15
-2.39471e-15
4.77888e-15
1.10977e-14
-4.77854e-15
-3.0663e-14
-2.54447e-15
7.0523e-14
3.46825e-14
-1.48222e-13
-1.34192e-13
2.7774e-13
4.06603e-13
-4.2186e-13
-1.07247e-12
3.88426e-13
2.49551e-12
4.94955e-13
-5.05979e-12
-3.913e-12
8.43727e-12
1.34373e-11
-8.98144e-12
-3.44228e-11
-4.96943e-12
6.97282e-11
5.96879e-11
-9.69757e-11
-2.028e-10
3.48803e-11
4.46551e-10
3.12166e-10
-6.51701e-10
-1.20343e-09
1.65991e-10
2.64663e-09
2.22032e-09
-3.0557e-09
-7.67929e-09
-1.88236e-09
1.37313e-08
1.79416e-08
-5.93201e-09
-4.34386e-08
-3.90064e-08
3.90368e-08
1.24228e-07
7.93848e-08
-1.44982e-07
-3.37717e-07
-1.65672e-07
4.33805e-07
9.03317e-07
4.2974e-07
-1.1508e-06
-2.43234e-06
-1.38879e-06
2.57739e-06
6.50369e-06
5.0245e-06
-4.24145e-06
-1.65637e-05
-1.7759e-05
4.40989e-07
3.48763e-05
5.68475e-05
3.3589e-05
-4.61848e-05
-0.000145891
-0.00016681
-4.78459e-05
0.000220702
0.000504299
0.000522042
0.000136603
-0.000693134
-0.00162304
-0.00191905
-0.00108393
0.00117834
0.00444598
0.00723431
0.00727017
0.00346901
-0.00521562
-0.0179372
-0.0312088
-0.0387632
-0.0352676
-0.0164097
0.0225227
0.0836875
0.166029
0.265439
0.37552
0.488765
0.597845
0.696704
0.781254
0.849595
0.901809
0.939477
0.965065
0.981358
0.991003
0.99624
0.998781
0.999807
1
1
1
1
1
1
1
1
1
1
1
1
1
1
1
1
1
1
1
1
1
1
1
1
1
1
1
1
1
1
1
1
1
1
1
1
1
1
1
1
1
1
1
1
0.999999
1
1
1
1
0.999997
0.999993
0.999995
1
1.00002
1.00002
1
0.999965
0.999943
0.999966
1.00005
1.00015
1.00017
1.00005
0.99978
0.999497
0.99948
0.999865
1.00069
1.00162
1.00192
1.00108
0.998819
0.995553
0.992769
0.992736
0.996541
1.00523
1.01794
1.03121
1.03875
1.03523
1.01635
0.977385
0.916192
0.833831
0.734411
0.624331
0.511098
0.402036
0.303199
0.218671
0.150352
0.0981545
0.0605006
0.0349215
0.0186356
0.0089943
0.00375901
0.00121892
0.000193372
6.73653e-11
4.08995e-12
3.37647e-13
4.06107e-15
3.61718e-16
3.55209e-16
3.38275e-16
3.06346e-16
2.6344e-16
2.17259e-16
1.74291e-16
1.37757e-16
1.08183e-16
8.4751e-17
6.62982e-17
5.17684e-17
4.03227e-17
3.13144e-17
2.42402e-17
1.87011e-17
1.43779e-17
1.1015e-17
8.40758e-18
6.39299e-18
4.842e-18
3.65242e-18
2.74366e-18
2.05227e-18
1.52849e-18
1.13342e-18
8.36755e-19
6.14984e-19
4.49957e-19
3.27718e-19
2.37594e-19
1.71459e-19
1.23156e-19
8.80457e-20
6.26472e-20
4.4363e-20
3.12647e-20
2.19275e-20
1.53044e-20
1.06299e-20
7.34713e-21
5.05336e-21
3.4587e-21
2.35567e-21
1.59657e-21
1.07679e-21
7.2269e-22
4.82674e-22
3.20806e-22
2.1219e-22
1.39672e-22
9.14963e-23
5.96511e-23
3.87046e-23
2.49947e-23
1.60651e-23
1.02773e-23
6.54403e-24
4.14759e-24
2.61661e-24
1.64318e-24
1.02718e-24
6.39197e-25
3.95965e-25
2.44188e-25
1.49916e-25
9.16295e-26
5.57568e-26
3.37788e-26
2.03743e-26
1.22355e-26
7.31596e-27
4.35551e-27
2.58187e-27
1.52392e-27
8.95639e-28
5.24147e-28
3.05443e-28
1.77245e-28
1.0242e-28
5.89358e-29
3.37721e-29
1.92721e-29
1.09521e-29
6.19834e-30
3.49353e-30
1.96098e-30
1.09625e-30
6.10346e-31
3.38441e-31
1.86911e-31
1.02811e-31
5.63248e-32
3.07345e-32
1.67041e-32
9.04271e-33
4.87592e-33
2.61882e-33
1.40104e-33
7.46617e-34
3.96328e-34
2.09569e-34
1.10388e-34
5.79219e-35
3.02761e-35
1.57651e-35
8.17789e-36
4.22609e-36
2.17569e-36
1.11589e-36
5.70187e-37
2.90263e-37
1.47215e-37
7.43883e-38
3.74502e-38
1.87849e-38
9.38799e-39
4.6747e-39
2.3193e-39
1.14655e-39
5.64755e-40
2.77186e-40
1.35559e-40
6.60607e-41
3.20787e-41
1.55223e-41
7.48463e-42
3.59635e-42
1.72203e-42
8.2169e-43
3.90727e-43
1.85158e-43
8.74423e-44
4.11544e-44
1.93033e-44
9.02349e-45
4.20389e-45
1.95194e-45
9.03292e-46
4.1662e-46
1.91518e-46
8.77488e-47
4.00721e-47
1.82397e-47
8.27507e-48
3.74208e-48
1.68673e-48
7.57835e-49
3.39396e-49
1.51512e-49
6.74221e-50
2.99073e-50
1.32244e-50
5.82916e-51
2.56136e-51
1.12196e-51
4.89928e-52
2.13274e-52
9.25555e-53
4.00432e-53
1.72712e-53
7.42663e-54
3.18374e-54
1.36072e-54
5.79813e-55
2.46321e-55
1.04331e-55
4.40586e-56
1.85505e-56
7.78748e-57
3.25954e-57
1.36032e-57
5.66048e-58
2.34855e-58
9.71598e-59
4.0079e-59
1.64852e-59
6.76125e-60
2.76514e-60
1.12764e-60
4.58554e-61
1.85944e-61
7.51887e-62
3.03182e-62
1.21911e-62
4.88843e-63
1.95475e-63
7.79498e-64
3.09986e-64
1.22936e-64
4.86213e-65
1.91775e-65
7.54363e-66
2.95934e-66
1.15781e-66
4.51771e-67
1.75807e-67
6.82337e-68
2.64124e-68
1.01969e-68
3.92632e-69
1.50787e-69
5.77569e-70
2.20655e-70
8.40805e-71
3.1956e-71
1.21141e-71
4.58051e-72
1.72753e-72
6.49873e-73
2.43853e-73
9.127e-74
3.40747e-74
1.26895e-74
4.71375e-75
1.74665e-75
6.45599e-76
2.38037e-76
8.75492e-77
3.21211e-77
1.17561e-77
4.29214e-78
1.56324e-78
5.67966e-79
2.05858e-79
7.44333e-80
2.68486e-80
9.66129e-81
3.46826e-81
1.2421e-81
4.43782e-82
1.58182e-82
5.62497e-83
1.99556e-83
7.06306e-84
2.49407e-84
8.78647e-85
3.08826e-85
1.08296e-85
3.78887e-86
1.32255e-86
4.60596e-87
1.60044e-87
5.54845e-88
1.91921e-88
6.62356e-89
2.28079e-89
7.83618e-90
2.68629e-90
9.18831e-91
3.13583e-91
1.06785e-91
3.62835e-92
1.23013e-92
4.16145e-93
1.40471e-93
4.73135e-94
1.59015e-94
5.33279e-95
1.78456e-95
5.95903e-96
1.98559e-96
6.60197e-97
2.19045e-97
7.25222e-98
2.39601e-98
7.89934e-99
2.59884e-99
8.5321e-100
2.79528e-100
9.13879e-101
2.9816e-101
9.70759e-102
3.15411e-102
1.0227e-102
3.30922e-103
1.0686e-103
3.44366e-104
1.10749e-104
3.55452e-105
1.13853e-105
3.6394e-106
1.16103e-106
3.69647e-107
1.17453e-107
3.72455e-108
1.17875e-108
3.72315e-109
1.17366e-109
3.69249e-110
1.15943e-110
3.63344e-111
1.13644e-111
3.54755e-112
1.10527e-112
3.43692e-113
1.06667e-113
3.30415e-114
1.02154e-114
3.15225e-115
9.70866e-116
2.9845e-116
9.15717e-117
2.80434e-117
8.57197e-118
2.61526e-118
7.9641e-119
2.42073e-119
7.34426e-120
2.22404e-120
6.72252e-121
2.02824e-121
6.10813e-122
1.83611e-122
5.50927e-123
1.65005e-123
4.93296e-124
1.47208e-124
4.38497e-125
1.30382e-125
3.86979e-126
1.14651e-126
)
;

boundaryField
{
    sides
    {
        type            zeroGradient;
    }
    empty
    {
        type            empty;
    }
}


// ************************************************************************* //
