/*--------------------------------*- C++ -*----------------------------------*\
| =========                 |                                                 |
| \\      /  F ield         | OpenFOAM: The Open Source CFD Toolbox           |
|  \\    /   O peration     | Version:  2312                                  |
|   \\  /    A nd           | Website:  www.openfoam.com                      |
|    \\/     M anipulation  |                                                 |
\*---------------------------------------------------------------------------*/
FoamFile
{
    version     2.0;
    format      ascii;
    arch        "LSB;label=32;scalar=64";
    class       volScalarField;
    location    "1.2";
    object      T;
}
// * * * * * * * * * * * * * * * * * * * * * * * * * * * * * * * * * * * * * //

dimensions      [0 0 0 1 0 0 0];

internalField   nonuniform List<scalar> 
1000
(
0
0
0
0
0
0
0
0
0
0
0
0
0
0
0
0
0
0
0
0
0
0
0
0
0
0
0
0
0
0
0
0
0
0
0
0
0
0
0
0
0
0
0
0
0
0
0
0
0
0
0
0
0
0
0
0
0
0
0
0
0
0
0
0
0
0
0
0
0
0
0
0
0
0
0
0
0
0
0
0
0
0
0
0
0
0
0
0
0
0
0
0
0
0
0
0
0
0
0
0
0
0
0
0
0
0
0
0
0
0
0
0
0
0
0
0
0
0
0
0
0
0
0
0
0
0
0
0
0
0
0
0
0
0
0
0
0
0
0
0
0
0
0
0
0
0
0
0
0
0
0
0
0
0
0
0
0
0
0
0
0
0
0
0
0
0
0
0
0
0
0
0
0
-4.94066e-324
2.96439e-323
-4.94066e-324
2.96439e-323
-4.94066e-324
2.96439e-323
-4.94066e-324
2.96439e-323
-4.94066e-324
2.96439e-323
-4.94066e-324
2.96439e-323
-4.94066e-324
2.96439e-323
-4.94066e-324
2.96439e-323
-4.94066e-324
2.96439e-323
-4.94066e-324
2.96439e-323
-4.94066e-324
2.96439e-323
-4.94066e-324
2.96439e-323
-4.94066e-324
2.96439e-323
-4.94066e-324
2.96439e-323
-4.94066e-324
2.96439e-323
-4.94066e-324
2.96439e-323
-4.94066e-324
2.96439e-323
-5.92879e-323
9.43665e-322
-1.20009e-320
1.54583e-319
-1.98853e-318
2.55826e-317
-3.29121e-316
4.23415e-315
-5.44725e-314
7.00792e-313
-9.01571e-312
1.15988e-310
-1.49218e-309
1.9197e-308
-2.4697e-307
3.17729e-306
-4.08759e-305
5.2587e-304
-6.76535e-303
8.70365e-302
-1.11973e-300
1.44053e-299
-1.85325e-298
2.38422e-297
-3.06731e-296
3.9461e-295
-5.07668e-294
6.53117e-293
-8.40238e-292
1.08097e-290
-1.39067e-289
1.78911e-288
-2.30169e-287
2.96114e-286
-3.80952e-285
4.90096e-284
-6.3051e-283
8.11154e-282
-1.04355e-280
1.34254e-279
-1.72718e-278
2.22202e-277
-2.85864e-276
3.67765e-275
-4.73132e-274
6.08686e-273
-7.83077e-272
1.00743e-270
-1.29607e-269
1.66739e-268
-2.14511e-267
2.75969e-266
-3.55036e-265
4.56755e-264
-5.87617e-263
7.55972e-262
-9.72561e-261
1.2512e-259
-1.60968e-258
2.07086e-257
-2.66417e-256
3.42747e-255
-4.40945e-254
5.67278e-253
-7.29805e-252
9.38897e-251
-1.2079e-249
1.55396e-248
-1.99918e-247
2.57195e-246
-3.30883e-245
4.25682e-244
-5.47642e-243
7.04544e-242
-9.06398e-241
1.16609e-239
-1.50017e-238
1.92998e-237
-2.48293e-236
3.1943e-235
-4.10948e-234
5.28686e-233
-6.80157e-232
8.75025e-231
-1.12572e-229
1.44825e-228
-1.86318e-227
2.39698e-226
-3.08373e-225
3.96723e-224
-5.10386e-223
6.56614e-222
-8.44737e-221
1.08676e-219
-1.39812e-218
1.79869e-217
-2.31402e-216
2.97699e-215
-3.82991e-214
4.9272e-213
-6.33886e-212
8.15497e-211
-1.04914e-209
1.34972e-208
-1.73643e-207
2.23392e-206
-2.87395e-205
3.69734e-204
-4.75665e-203
6.11945e-202
-7.8727e-201
1.01283e-199
-1.30301e-198
1.67632e-197
-2.1566e-196
2.77447e-195
-3.56937e-194
4.592e-193
-5.90763e-192
7.6002e-191
-9.77768e-190
1.2579e-188
-1.6183e-187
2.08195e-186
-2.67843e-185
3.44582e-184
-4.43306e-183
5.70315e-182
-7.33712e-181
9.43924e-180
-1.21436e-178
1.56228e-177
-2.00988e-176
2.58572e-175
-3.32654e-174
4.27961e-173
-5.50574e-172
7.08316e-171
-9.11252e-170
1.17233e-168
-1.50821e-167
1.94031e-166
-2.49622e-165
3.2114e-164
-4.13148e-163
5.31517e-162
-6.83799e-161
8.7971e-160
-1.13175e-158
1.456e-157
-1.87315e-156
2.40982e-155
-3.10024e-154
3.98847e-153
-5.13119e-152
6.6013e-151
-8.4926e-150
1.09258e-148
-1.4056e-147
1.80832e-146
-2.32641e-145
2.99293e-144
-3.85042e-143
4.95358e-142
-6.3728e-141
8.19864e-140
-1.05476e-138
1.35695e-137
-1.74572e-136
2.24588e-135
-2.88933e-134
3.71714e-133
-4.78212e-132
6.15222e-131
-7.91485e-130
1.01825e-128
-1.30998e-127
1.6853e-126
-2.16814e-125
2.78932e-124
-3.58848e-123
4.61659e-122
-5.93926e-121
7.64089e-120
-9.83004e-119
1.26464e-117
-1.62696e-116
2.09309e-115
-2.69277e-114
3.46427e-113
-4.45679e-112
5.73368e-111
-7.37641e-110
9.48978e-109
-1.22086e-107
1.57065e-106
-2.02064e-105
2.59957e-104
-3.34436e-103
4.30253e-102
-5.53522e-101
7.12108e-100
-9.16131e-99
1.17861e-97
-1.51628e-96
1.9507e-95
-2.50959e-94
3.22859e-93
-4.1536e-92
5.34363e-91
-6.8746e-90
8.8442e-89
-1.13781e-87
1.4638e-86
-1.88318e-85
2.42272e-84
-3.11684e-83
4.00983e-82
-5.15866e-81
6.63664e-80
-8.53807e-79
1.09843e-77
-1.41313e-76
1.818e-75
-2.33886e-74
3.00896e-73
-3.87103e-72
4.9801e-71
-6.40692e-70
8.24253e-69
-1.06041e-67
1.36422e-66
-1.75507e-65
2.66473e-65
7.38443e-64
-1.01012e-62
-1.75035e-62
5.62032e-61
2.48623e-61
-2.72742e-59
6.19447e-60
1.34622e-57
-1.70086e-58
-6.86133e-56
-3.33751e-56
3.47147e-54
4.40372e-54
-1.09192e-52
-4.26753e-52
1.83723e-51
2.92798e-50
8.33071e-51
-1.23189e-48
-3.24446e-47
-7.34735e-46
-6.6026e-45
-4.60745e-45
1.21753e-43
2.46545e-42
3.97271e-41
5.87594e-40
8.13067e-39
1.05798e-37
1.29849e-36
1.50692e-35
1.65724e-34
1.73057e-33
1.71903e-32
1.62701e-31
1.46948e-30
1.26826e-29
1.04732e-28
8.28492e-28
6.28509e-27
4.57707e-26
3.20275e-25
2.15524e-24
1.39591e-23
8.70829e-23
5.23635e-22
3.03687e-21
1.69977e-20
9.18682e-20
4.7971e-19
2.42128e-18
1.18184e-17
5.58091e-17
2.55065e-16
1.12864e-15
4.83684e-15
2.00817e-14
8.0797e-14
3.15105e-13
1.19146e-12
4.36872e-12
1.55368e-11
5.36004e-11
1.79405e-10
5.82648e-10
1.83622e-09
5.6159e-09
1.66689e-08
4.80174e-08
1.34243e-07
3.64231e-07
9.59026e-07
2.4503e-06
6.07435e-06
1.46088e-05
3.40797e-05
7.71016e-05
0.00016913
0.000359634
0.000741069
0.00147937
0.00285993
0.00535215
0.00969172
0.0169733
0.0287341
0.0469947
0.0742095
0.113072
0.16613
0.235209
0.320702
0.420871
0.531403
0.645451
0.754374
0.849135
0.922142
0.969269
0.992107
0.99897
0.99995
0.999999
1
1
1
1
1
1
1
1
1
1
1
1
1
1
1
1
1
1
1
1
1
1
1
1
1
1
1
1
1
1
1
1
1
1
1
1
1
1
1
1
1
1
1
1
1
1
1
1
1
1
1
1
1
1
1
1
1
1
1
1
1
1
1
1
1
1
1
1
0.999999
0.999998
0.999994
0.999985
0.999966
0.999923
0.99983
0.99964
0.999257
0.998518
0.997135
0.994639
0.990294
0.983004
0.971232
0.952955
0.92572
0.886833
0.833748
0.764643
0.679128
0.578944
0.46841
0.354373
0.245475
0.150749
0.0777815
0.0306904
0.00787842
0.00102748
4.97205e-05
6.43131e-07
1.66085e-09
6.76191e-13
5.95934e-17
5.18e-21
4.45411e-25
3.80122e-29
3.23028e-33
2.74125e-37
2.32793e-41
1.98081e-45
1.68945e-49
1.44405e-53
1.23626e-57
1.05933e-61
9.08005e-66
7.78207e-70
6.66728e-74
5.70974e-78
4.88782e-82
4.18302e-86
3.57925e-90
3.06244e-94
2.62027e-98
2.24207e-102
1.91857e-106
1.64184e-110
1.40508e-114
1.20248e-118
1.02909e-122
8.80675e-127
7.53646e-131
6.44918e-135
5.51858e-139
4.72212e-143
4.04049e-147
3.45717e-151
2.958e-155
2.53086e-159
2.16535e-163
1.85259e-167
1.58497e-171
1.35598e-175
1.16005e-179
9.92416e-184
8.48984e-188
7.26267e-192
6.21276e-196
5.31452e-200
4.54606e-204
3.88864e-208
3.32623e-212
2.84511e-216
2.43354e-220
2.08147e-224
1.78031e-228
1.5227e-232
1.30234e-236
1.11385e-240
9.52632e-245
8.14733e-249
6.96785e-253
5.95902e-257
5.09618e-261
4.3582e-265
3.72703e-269
3.18721e-273
2.72553e-277
2.33069e-281
1.99301e-285
1.70423e-289
1.45726e-293
1.24606e-297
1.06544e-301
9.10993e-306
7.78917e-310
6.65976e-314
5.69398e-318
4.74303e-322
0
0
0
0
0
0
0
0
0
0
0
0
0
0
0
0
0
0
0
0
0
0
0
0
0
0
0
0
0
0
0
0
0
0
0
0
0
0
0
0
0
0
0
0
0
0
0
0
0
0
0
0
0
0
0
0
0
0
0
0
0
0
0
0
0
0
0
0
0
0
0
0
0
0
0
0
0
0
0
0
0
0
0
0
0
0
0
0
0
0
0
0
0
0
0
0
0
0
0
0
0
0
0
0
0
0
0
0
0
0
0
0
0
0
0
0
0
0
0
0
0
0
0
0
0
0
0
0
0
0
0
0
0
0
0
0
0
0
0
0
0
0
0
0
0
0
0
0
0
0
0
0
0
0
0
0
0
0
0
0
0
0
0
0
0
0
0
0
0
0
0
0
0
0
0
0
0
0
0
0
0
0
0
0
0
0
0
0
0
0
0
0
0
0
0
0
0
0
0
0
0
0
0
0
0
0
0
0
0
0
0
0
0
0
0
0
0
0
0
0
0
0
0
0
0
0
0
0
0
0
0
0
0
0
0
0
0
0
0
0
0
0
0
0
0
0
0
0
0
0
0
0
0
0
0
0
0
0
0
0
0
0
0
0
0
0
0
0
0
0
0
0
0
0
0
0
0
0
)
;

boundaryField
{
    sides
    {
        type            zeroGradient;
    }
    empty
    {
        type            empty;
    }
}


// ************************************************************************* //
