/*--------------------------------*- C++ -*----------------------------------*\
| =========                 |                                                 |
| \\      /  F ield         | OpenFOAM: The Open Source CFD Toolbox           |
|  \\    /   O peration     | Version:  2312                                  |
|   \\  /    A nd           | Website:  www.openfoam.com                      |
|    \\/     M anipulation  |                                                 |
\*---------------------------------------------------------------------------*/
FoamFile
{
    version     2.0;
    format      ascii;
    arch        "LSB;label=32;scalar=64";
    class       volScalarField;
    location    "3.6";
    object      T;
}
// * * * * * * * * * * * * * * * * * * * * * * * * * * * * * * * * * * * * * //

dimensions      [0 0 0 1 0 0 0];

internalField   nonuniform List<scalar> 
1000
(
1.20274e-07
1.20549e-07
1.21305e-07
1.22545e-07
1.24274e-07
1.26497e-07
1.29223e-07
1.32459e-07
1.36218e-07
1.40513e-07
1.45358e-07
1.5077e-07
1.56767e-07
1.6337e-07
1.70601e-07
1.78485e-07
1.87048e-07
1.9632e-07
2.06332e-07
2.17116e-07
2.28711e-07
2.41153e-07
2.54485e-07
2.6875e-07
2.83997e-07
3.00274e-07
3.17636e-07
3.36138e-07
3.55842e-07
3.76811e-07
3.99113e-07
4.2282e-07
4.48006e-07
4.74754e-07
5.03147e-07
5.33274e-07
5.65232e-07
5.9912e-07
6.35043e-07
6.73113e-07
7.13447e-07
7.56169e-07
8.01411e-07
8.49308e-07
9.00007e-07
9.53661e-07
1.01043e-06
1.07048e-06
1.134e-06
1.20116e-06
1.27218e-06
1.34725e-06
1.42659e-06
1.51043e-06
1.59902e-06
1.69261e-06
1.79147e-06
1.89586e-06
2.0061e-06
2.12249e-06
2.24535e-06
2.37502e-06
2.51186e-06
2.65626e-06
2.80859e-06
2.96928e-06
3.13876e-06
3.31749e-06
3.50594e-06
3.70461e-06
3.91403e-06
4.13475e-06
4.36734e-06
4.61242e-06
4.87061e-06
5.14258e-06
5.42902e-06
5.73066e-06
6.04826e-06
6.38263e-06
6.7346e-06
7.10503e-06
7.49485e-06
7.90502e-06
8.33654e-06
8.79045e-06
9.26785e-06
9.76989e-06
1.02978e-05
1.08527e-05
1.14361e-05
1.20492e-05
1.26935e-05
1.33705e-05
1.40818e-05
1.48289e-05
1.56136e-05
1.64377e-05
1.73029e-05
1.82113e-05
1.91649e-05
2.01657e-05
2.1216e-05
2.23181e-05
2.34743e-05
2.46871e-05
2.59592e-05
2.72932e-05
2.86919e-05
3.01584e-05
3.16957e-05
3.33069e-05
3.49954e-05
3.67646e-05
3.86182e-05
4.05599e-05
4.25936e-05
4.47234e-05
4.69534e-05
4.92882e-05
5.17323e-05
5.42903e-05
5.69674e-05
5.97686e-05
6.26993e-05
6.5765e-05
6.89715e-05
7.23249e-05
7.58312e-05
7.94972e-05
8.33293e-05
8.73347e-05
9.15205e-05
9.58944e-05
0.000100464
0.000105238
0.000110224
0.00011543
0.000120867
0.000126544
0.000132469
0.000138654
0.000145109
0.000151844
0.000158871
0.000166201
0.000173846
0.000181819
0.000190133
0.000198801
0.000207837
0.000217255
0.00022707
0.000237297
0.000247953
0.000259052
0.000270613
0.000282653
0.00029519
0.000308243
0.000321831
0.000335973
0.000350691
0.000366006
0.000381939
0.000398514
0.000415753
0.000433682
0.000452324
0.000471707
0.000491855
0.000512796
0.00053456
0.000557174
0.000580668
0.000605075
0.000630424
0.00065675
0.000684085
0.000712466
0.000741926
0.000772504
0.000804237
0.000837164
0.000871325
0.000906762
0.000943517
0.000981633
0.00102116
0.00106213
0.00110461
0.00114863
0.00119425
0.00124153
0.0012905
0.00134124
0.00139378
0.0014482
0.00150454
0.00156288
0.00162326
0.00168576
0.00175043
0.00181735
0.00188658
0.0019582
0.00203227
0.00210886
0.00218806
0.00226994
0.00235457
0.00244204
0.00253244
0.00262583
0.00272232
0.00282199
0.00292493
0.00303122
0.00314098
0.00325428
0.00337123
0.00349194
0.00361649
0.003745
0.00387758
0.00401433
0.00415536
0.00430079
0.00445074
0.00460531
0.00476464
0.00492884
0.00509804
0.00527236
0.00545194
0.00563691
0.00582739
0.00602354
0.00622548
0.00643336
0.00664733
0.00686752
0.00709409
0.00732718
0.00756696
0.00781358
0.00806719
0.00832796
0.00859605
0.00887162
0.00915485
0.0094459
0.00974495
0.0100522
0.0103677
0.0106918
0.0110246
0.0113663
0.0117171
0.0120772
0.0124467
0.0128259
0.0132149
0.013614
0.0140233
0.0144431
0.0148735
0.0153148
0.0157671
0.0162307
0.0167058
0.0171926
0.0176914
0.0182022
0.0187254
0.0192612
0.0198098
0.0203713
0.0209461
0.0215344
0.0221363
0.0227522
0.0233822
0.0240265
0.0246855
0.0253593
0.0260481
0.0267523
0.0274719
0.0282073
0.0289587
0.0297263
0.0305104
0.0313111
0.0321287
0.0329635
0.0338156
0.0346854
0.035573
0.0364786
0.0374025
0.038345
0.0393062
0.0402863
0.0412856
0.0423043
0.0433426
0.0444008
0.0454789
0.0465774
0.0476963
0.0488359
0.0499963
0.0511778
0.0523806
0.0536048
0.0548506
0.0561183
0.057408
0.0587198
0.0600541
0.0614108
0.0627902
0.0641925
0.0656177
0.0670661
0.0685378
0.0700329
0.0715515
0.0730938
0.0746599
0.0762499
0.0778638
0.0795019
0.0811642
0.0828507
0.0845616
0.0862969
0.0880567
0.089841
0.0916499
0.0934834
0.0953415
0.0972243
0.0991317
0.101064
0.103021
0.105002
0.107008
0.109038
0.111094
0.113173
0.115277
0.117405
0.119558
0.121734
0.123935
0.12616
0.128408
0.13068
0.132975
0.135294
0.137636
0.14
0.142388
0.144798
0.14723
0.149684
0.15216
0.154658
0.157177
0.159717
0.162277
0.164858
0.167459
0.17008
0.17272
0.175379
0.178057
0.180752
0.183466
0.186197
0.188945
0.19171
0.194491
0.197287
0.200099
0.202925
0.205765
0.208619
0.211486
0.214366
0.217258
0.220161
0.223076
0.226
0.228935
0.231878
0.23483
0.23779
0.240757
0.243731
0.246711
0.249696
0.252685
0.255679
0.258675
0.261675
0.264676
0.267678
0.27068
0.273682
0.276683
0.279682
0.282678
0.28567
0.288659
0.291642
0.29462
0.297591
0.300554
0.303509
0.306456
0.309392
0.312318
0.315232
0.318134
0.321022
0.323897
0.326756
0.3296
0.332428
0.335238
0.33803
0.340803
0.343556
0.346288
0.348998
0.351686
0.354351
0.356992
0.359608
0.362198
0.364762
0.367298
0.369806
0.372284
0.374733
0.377152
0.379539
0.381894
0.384215
0.386503
0.388757
0.390975
0.393157
0.395302
0.39741
0.39948
0.40151
0.403501
0.405452
0.407361
0.409229
0.411055
0.412838
0.414577
0.416272
0.417922
0.419527
0.421086
0.422598
0.424064
0.425482
0.426851
0.428173
0.429445
0.430668
0.43184
0.432963
0.434034
0.435055
0.436024
0.436941
0.437806
0.438619
0.439378
0.440085
0.440738
0.441338
0.441884
0.442375
0.442813
0.443196
0.443525
0.443799
0.444019
0.444183
0.444293
0.444348
0.444348
0.444293
0.444183
0.444019
0.443799
0.443525
0.443196
0.442813
0.442375
0.441884
0.441338
0.440738
0.440085
0.439378
0.438619
0.437806
0.436941
0.436024
0.435055
0.434034
0.432963
0.43184
0.430668
0.429445
0.428173
0.426851
0.425482
0.424064
0.422598
0.421086
0.419527
0.417922
0.416272
0.414577
0.412838
0.411055
0.409229
0.407361
0.405452
0.403501
0.40151
0.39948
0.39741
0.395302
0.393157
0.390975
0.388757
0.386503
0.384215
0.381894
0.379539
0.377152
0.374733
0.372284
0.369806
0.367298
0.364762
0.362198
0.359608
0.356992
0.354351
0.351686
0.348998
0.346288
0.343556
0.340803
0.33803
0.335238
0.332428
0.3296
0.326756
0.323897
0.321022
0.318134
0.315232
0.312318
0.309392
0.306456
0.303509
0.300554
0.297591
0.29462
0.291642
0.288659
0.28567
0.282678
0.279682
0.276683
0.273682
0.27068
0.267678
0.264676
0.261675
0.258675
0.255679
0.252685
0.249696
0.246711
0.243731
0.240757
0.23779
0.23483
0.231878
0.228935
0.226
0.223076
0.220161
0.217258
0.214366
0.211486
0.208619
0.205765
0.202925
0.200099
0.197287
0.194491
0.19171
0.188945
0.186197
0.183466
0.180752
0.178057
0.175379
0.17272
0.17008
0.167459
0.164858
0.162277
0.159717
0.157177
0.154658
0.15216
0.149684
0.14723
0.144798
0.142388
0.14
0.137636
0.135294
0.132975
0.13068
0.128408
0.12616
0.123935
0.121734
0.119558
0.117405
0.115277
0.113173
0.111094
0.109038
0.107008
0.105002
0.103021
0.101064
0.0991317
0.0972243
0.0953415
0.0934834
0.0916499
0.089841
0.0880567
0.0862969
0.0845616
0.0828507
0.0811642
0.0795019
0.0778638
0.0762499
0.0746599
0.0730938
0.0715515
0.0700329
0.0685378
0.0670661
0.0656177
0.0641925
0.0627902
0.0614108
0.0600541
0.0587198
0.057408
0.0561183
0.0548506
0.0536048
0.0523806
0.0511778
0.0499963
0.0488359
0.0476963
0.0465774
0.0454789
0.0444008
0.0433426
0.0423043
0.0412856
0.0402863
0.0393062
0.038345
0.0374025
0.0364786
0.035573
0.0346854
0.0338156
0.0329635
0.0321287
0.0313111
0.0305104
0.0297263
0.0289587
0.0282073
0.0274719
0.0267523
0.0260481
0.0253593
0.0246855
0.0240265
0.0233822
0.0227522
0.0221363
0.0215344
0.0209461
0.0203713
0.0198098
0.0192612
0.0187254
0.0182022
0.0176914
0.0171926
0.0167058
0.0162307
0.0157671
0.0153148
0.0148735
0.0144431
0.0140233
0.013614
0.0132149
0.0128259
0.0124467
0.0120772
0.0117171
0.0113663
0.0110246
0.0106918
0.0103677
0.0100522
0.00974495
0.0094459
0.00915485
0.00887162
0.00859605
0.00832796
0.00806719
0.00781358
0.00756696
0.00732718
0.00709409
0.00686752
0.00664733
0.00643336
0.00622548
0.00602354
0.00582739
0.00563691
0.00545194
0.00527236
0.00509804
0.00492884
0.00476464
0.00460531
0.00445074
0.00430079
0.00415536
0.00401433
0.00387758
0.003745
0.00361649
0.00349194
0.00337123
0.00325428
0.00314098
0.00303122
0.00292493
0.00282199
0.00272232
0.00262583
0.00253244
0.00244204
0.00235457
0.00226994
0.00218806
0.00210886
0.00203227
0.0019582
0.00188658
0.00181735
0.00175043
0.00168576
0.00162326
0.00156288
0.00150454
0.0014482
0.00139378
0.00134124
0.0012905
0.00124153
0.00119425
0.00114863
0.00110461
0.00106213
0.00102116
0.000981633
0.000943517
0.000906762
0.000871325
0.000837164
0.000804237
0.000772504
0.000741926
0.000712466
0.000684085
0.00065675
0.000630424
0.000605075
0.000580668
0.000557174
0.00053456
0.000512796
0.000491855
0.000471707
0.000452324
0.000433682
0.000415753
0.000398514
0.000381939
0.000366006
0.000350691
0.000335973
0.000321831
0.000308243
0.00029519
0.000282653
0.000270613
0.000259052
0.000247953
0.000237297
0.00022707
0.000217255
0.000207837
0.000198801
0.000190133
0.000181819
0.000173846
0.000166201
0.000158871
0.000151844
0.000145109
0.000138654
0.000132469
0.000126544
0.000120867
0.00011543
0.000110224
0.000105238
0.000100464
9.58944e-05
9.15205e-05
8.73347e-05
8.33293e-05
7.94972e-05
7.58312e-05
7.23249e-05
6.89715e-05
6.5765e-05
6.26993e-05
5.97686e-05
5.69674e-05
5.42903e-05
5.17323e-05
4.92882e-05
4.69534e-05
4.47234e-05
4.25936e-05
4.05599e-05
3.86182e-05
3.67646e-05
3.49954e-05
3.33069e-05
3.16957e-05
3.01584e-05
2.86919e-05
2.72932e-05
2.59592e-05
2.46871e-05
2.34743e-05
2.23181e-05
2.1216e-05
2.01657e-05
1.91649e-05
1.82113e-05
1.73029e-05
1.64377e-05
1.56136e-05
1.48289e-05
1.40818e-05
1.33705e-05
1.26935e-05
1.20492e-05
1.14361e-05
1.08527e-05
1.02978e-05
9.76989e-06
9.26785e-06
8.79045e-06
8.33654e-06
7.90502e-06
7.49485e-06
7.10503e-06
6.7346e-06
6.38263e-06
6.04826e-06
5.73066e-06
5.42902e-06
5.14258e-06
4.87061e-06
4.61242e-06
4.36734e-06
4.13475e-06
3.91403e-06
3.70461e-06
3.50594e-06
3.31749e-06
3.13876e-06
2.96928e-06
2.80859e-06
2.65626e-06
2.51186e-06
2.37502e-06
2.24535e-06
2.12249e-06
2.0061e-06
1.89586e-06
1.79147e-06
1.69261e-06
1.59902e-06
1.51043e-06
1.42659e-06
1.34725e-06
1.27218e-06
1.20116e-06
1.134e-06
1.07048e-06
1.01043e-06
9.53661e-07
9.00007e-07
8.49308e-07
8.01411e-07
7.56169e-07
7.13447e-07
6.73113e-07
6.35043e-07
5.9912e-07
5.65232e-07
5.33274e-07
5.03147e-07
4.74754e-07
4.48006e-07
4.2282e-07
3.99113e-07
3.76811e-07
3.55842e-07
3.36138e-07
3.17636e-07
3.00274e-07
2.83997e-07
2.6875e-07
2.54485e-07
2.41153e-07
2.28711e-07
2.17116e-07
2.06332e-07
1.9632e-07
1.87048e-07
1.78485e-07
1.70601e-07
1.6337e-07
1.56767e-07
1.5077e-07
1.45358e-07
1.40513e-07
1.36218e-07
1.32459e-07
1.29223e-07
1.26497e-07
1.24274e-07
1.22545e-07
1.21305e-07
1.20549e-07
1.20274e-07
)
;

boundaryField
{
    sides
    {
        type            zeroGradient;
    }
    empty
    {
        type            empty;
    }
}


// ************************************************************************* //
