/*--------------------------------*- C++ -*----------------------------------*\
| =========                 |                                                 |
| \\      /  F ield         | OpenFOAM: The Open Source CFD Toolbox           |
|  \\    /   O peration     | Version:  2312                                  |
|   \\  /    A nd           | Website:  www.openfoam.com                      |
|    \\/     M anipulation  |                                                 |
\*---------------------------------------------------------------------------*/
FoamFile
{
    version     2.0;
    format      ascii;
    arch        "LSB;label=32;scalar=64";
    class       volScalarField;
    location    "5";
    object      T;
}
// * * * * * * * * * * * * * * * * * * * * * * * * * * * * * * * * * * * * * //

dimensions      [0 0 0 1 0 0 0];

internalField   nonuniform List<scalar> 
1000
(
0
0
0
0
0
0
0
0
0
0
0
0
0
0
0
0
0
0
0
0
0
0
0
0
0
0
0
0
0
0
0
0
0
0
0
0
0
0
0
0
0
0
0
0
0
0
0
0
0
0
0
0
0
0
0
0
0
0
0
0
0
0
0
0
0
0
0
0
0
0
0
0
0
0
0
0
0
0
0
0
0
0
0
0
0
0
0
0
0
0
0
0
0
0
0
0
0
0
0
0
0
0
0
0
0
0
0
0
0
0
0
0
0
0
0
0
0
0
0
0
0
0
0
0
0
0
0
0
0
0
0
0
0
0
0
0
0
0
0
0
0
0
0
0
0
0
0
0
0
0
0
0
0
0
0
0
0
0
0
0
0
0
0
0
0
0
0
0
0
0
0
0
0
0
0
0
0
0
0
0
0
0
0
0
0
0
0
0
0
0
0
0
0
0
0
0
0
0
0
0
0
0
0
0
0
0
0
0
0
0
0
0
0
0
0
0
0
0
0
0
0
0
0
0
0
0
0
0
0
0
0
0
0
0
0
0
0
0
0
0
0
0
0
0
0
0
0
0
0
0
0
0
0
0
0
0
0
0
0
0
0
0
0
0
0
0
0
0
0
0
0
0
0
0
0
0
0
0
0
0
0
0
0
0
0
0
0
0
0
0
0
0
0
0
0
0
0
0
0
0
0
0
0
0
0
0
0
0
0
0
0
0
0
0
0
0
0
0
0
0
0
0
0
0
0
0
0
0
0
0
0
0
0
0
0
0
0
0
0
0
0
0
0
0
0
0
0
0
0
0
0
0
0
0
0
0
0
0
0
0
0
0
0
0
0
0
0
0
0
0
0
0
0
0
0
0
0
0
0
0
0
0
0
0
0
0
0
0
0
0
0
0
0
0
0
0
0
0
0
0
0
0
0
0
8.29529e-174
-5.56859e-158
3.34605e-150
-1.8991e-146
-4.30396e-144
-4.51863e-142
-2.81414e-140
-1.00157e-138
-2.84803e-138
2.30201e-135
1.87442e-133
9.82647e-132
4.05104e-130
1.40644e-128
4.25729e-127
1.14784e-125
2.7974e-124
6.2301e-123
1.27878e-121
2.43575e-120
4.32989e-119
7.21789e-118
1.13298e-116
1.68062e-115
2.36329e-114
3.15919e-113
4.02463e-112
4.89708e-111
5.70278e-110
6.36749e-109
6.8282e-108
7.04307e-107
6.99749e-106
6.70509e-105
6.20386e-104
5.54865e-103
4.80195e-102
4.02491e-101
3.27021e-100
2.57763e-99
1.97245e-98
1.46631e-97
1.0596e-96
7.44724e-96
5.09338e-95
3.39128e-94
2.19904e-93
1.38917e-92
8.55131e-92
5.1303e-91
2.99999e-90
1.70982e-89
9.49658e-89
5.13843e-88
2.70712e-87
1.38753e-86
6.91054e-86
3.33844e-85
1.56026e-84
7.02678e-84
3.03052e-83
1.23873e-82
4.70855e-82
1.59872e-81
4.33386e-81
4.76766e-81
-5.04608e-80
-5.6152e-79
-4.01197e-78
-2.43453e-77
-1.34874e-76
-7.02848e-76
-3.49839e-75
-1.67819e-74
-7.80314e-74
-3.53061e-73
-1.55884e-72
-6.73026e-72
-2.84605e-71
-1.1803e-70
-4.80541e-70
-1.92234e-69
-7.56152e-69
-2.92642e-68
-1.11493e-67
-4.18356e-67
-1.54675e-66
-5.63684e-66
-2.02555e-65
-7.17926e-65
-2.5106e-64
-8.66473e-64
-2.95207e-63
-9.93119e-63
-3.29975e-62
-1.08309e-61
-3.51276e-61
-1.12596e-60
-3.56764e-60
-1.11765e-59
-3.46248e-59
-1.06097e-58
-3.21614e-58
-9.64632e-58
-2.86323e-57
-8.41188e-57
-2.44647e-56
-7.04473e-56
-2.00876e-55
-5.67268e-55
-1.58672e-54
-4.3966e-54
-1.20692e-53
-3.2827e-53
-8.84727e-53
-2.36289e-52
-6.25407e-52
-1.64055e-51
-4.26524e-51
-1.09911e-50
-2.80733e-50
-7.10745e-50
-1.78365e-49
-4.437e-49
-1.09411e-48
-2.67444e-48
-6.48057e-48
-1.55674e-47
-3.70726e-47
-8.75276e-47
-2.04886e-46
-4.75536e-46
-1.09444e-45
-2.49788e-45
-5.65419e-45
-1.26952e-44
-2.82768e-44
-6.24895e-44
-1.37036e-43
-2.98253e-43
-6.44358e-43
-1.38208e-42
-2.94355e-42
-6.22603e-42
-1.308e-41
-2.72967e-41
-5.65918e-41
-1.16562e-40
-2.38521e-40
-4.84886e-40
-9.79169e-40
-1.96389e-39
-3.91138e-39
-7.73373e-39
-1.51761e-38
-2.95454e-38
-5.70434e-38
-1.09172e-37
-2.07013e-37
-3.88717e-37
-7.22393e-37
-1.32786e-36
-2.41257e-36
-4.32967e-36
-7.66899e-36
-1.33956e-35
-2.30527e-35
-3.90443e-35
-6.50049e-35
-1.06239e-34
-1.70159e-34
-2.66569e-34
-4.07471e-34
-6.05915e-34
-8.73134e-34
-1.21311e-33
-1.61391e-33
-2.03599e-33
-2.40056e-33
-2.58572e-33
-2.44766e-33
-1.89619e-33
-1.06681e-33
-6.30441e-34
-2.23329e-33
-8.88468e-33
-2.46503e-32
-5.19555e-32
-8.26033e-32
-7.43057e-32
1.03452e-31
7.845e-31
2.73616e-30
7.59731e-30
1.86769e-29
4.23537e-29
9.04419e-29
1.84046e-28
3.59617e-28
6.78111e-28
1.23827e-27
2.19498e-27
3.78316e-27
6.34666e-27
1.03691e-26
1.65008e-26
2.55688e-26
3.85531e-26
5.65024e-26
8.03605e-26
1.10682e-25
1.47246e-25
1.88651e-25
2.32141e-25
2.74177e-25
3.12776e-25
3.53365e-25
4.21014e-25
5.834e-25
9.90736e-25
1.94096e-24
3.98029e-24
8.0499e-24
1.56874e-23
2.92845e-23
5.23872e-23
8.99943e-23
1.48764e-22
2.36969e-22
3.63929e-22
5.38543e-22
7.66372e-22
1.04459e-21
1.35402e-21
1.64753e-21
1.83426e-21
1.75998e-21
1.18491e-21
-2.37052e-22
-2.97115e-21
-7.5949e-21
-1.47548e-20
-2.50631e-20
-3.89048e-20
-5.61214e-20
-7.55395e-20
-9.43204e-20
-1.07136e-19
-1.05221e-19
-7.54316e-20
4.57101e-22
1.45808e-19
3.87968e-19
7.55099e-19
1.27001e-18
1.93987e-18
2.74067e-18
3.59567e-18
4.3478e-18
4.72738e-18
4.31808e-18
2.52485e-18
-1.44456e-18
-8.57063e-18
-1.99637e-17
-3.67255e-17
-5.96922e-17
-8.90149e-17
-1.23556e-16
-1.60132e-16
-1.92754e-16
-2.12136e-16
-2.05307e-16
-1.52316e-16
-2.03899e-17
2.48364e-16
7.57466e-16
1.62809e-15
2.83361e-15
4.03843e-15
4.64619e-15
1.51558e-15
-9.19475e-15
-2.27688e-14
-2.60727e-14
-3.33278e-15
4.85785e-14
8.98451e-14
6.15814e-14
-6.6464e-14
-2.30778e-13
-2.48966e-13
-3.37791e-16
4.67632e-13
7.60576e-13
4.22554e-13
-6.87038e-13
-1.93679e-12
-1.91889e-12
1.5754e-13
3.83096e-12
6.08897e-12
3.54719e-12
-4.83526e-12
-1.50162e-11
-1.62421e-11
-2.49715e-12
2.55645e-11
4.84544e-11
3.9483e-11
-1.57938e-11
-1.00516e-10
-1.46685e-10
-8.71993e-11
1.04444e-10
3.49866e-10
4.29788e-10
1.85429e-10
-4.29517e-10
-1.13243e-09
-1.26241e-09
-4.35986e-10
1.44307e-09
3.50475e-09
3.8346e-09
1.38015e-09
-4.21437e-09
-1.05556e-08
-1.21743e-08
-5.74951e-09
1.02809e-08
3.03416e-08
3.95449e-08
2.59286e-08
-1.72311e-08
-8.04451e-08
-1.26267e-07
-1.11146e-07
-8.69855e-09
1.76527e-07
3.73146e-07
4.2745e-07
2.49982e-07
-2.20516e-07
-8.91522e-07
-1.43412e-06
-1.39468e-06
-5.25385e-07
1.29887e-06
3.64905e-06
5.3162e-06
4.93546e-06
1.65496e-06
-4.87148e-06
-1.33128e-05
-1.99703e-05
-1.98387e-05
-1.03969e-05
1.08068e-05
4.15486e-05
7.22042e-05
8.59103e-05
7.03082e-05
1.44451e-05
-8.57428e-05
-0.000216811
-0.000341249
-0.000392689
-0.000328981
-0.000105719
0.000304532
0.00087731
0.00150924
0.00200963
0.00208569
0.00162966
0.000403631
-0.00174137
-0.00478577
-0.00846102
-0.0122115
-0.0150808
-0.0156622
-0.0134812
-0.00721209
0.00449431
0.0228212
0.0486802
0.0826056
0.12468
0.174502
0.2312
0.29349
0.359771
0.428251
0.497078
0.564471
0.628833
0.688842
0.743504
0.792173
0.834551
0.870646
0.900725
0.925249
0.944813
0.960079
0.971728
0.980419
0.986752
0.991257
0.994383
0.996494
0.997882
0.998766
0.99931
0.999634
0.999818
0.999917
0.999967
0.99999
0.999999
1
1
1
1
1
1
1
1
1
1
1
1
1
1
1
1
1
1
1
1
1
1
1
1
1
1
0.999999
0.999996
0.999995
0.999995
0.999998
1
1.00001
1.00002
1.00002
1.00001
0.999989
0.999958
0.999928
0.999914
0.99993
0.999986
1.00009
1.00022
1.00034
1.00039
1.00033
1.00011
0.999695
0.999122
0.998491
0.997991
0.997916
0.998372
0.999602
1.00175
1.00479
1.00847
1.01222
1.01508
1.01565
1.01347
1.00719
0.995475
0.977137
0.951268
0.917332
0.875248
0.825418
0.768714
0.706421
0.640139
0.57166
0.502837
0.435449
0.371093
0.311092
0.256439
0.207778
0.165408
0.12932
0.0992482
0.0747298
0.0551714
0.0399095
0.028263
0.0195753
0.0132441
0.00874007
0.00561547
0.00350436
0.00211759
0.00123391
0.000689303
0.000366024
0.000182278
8.31567e-05
3.31357e-05
1.01631e-05
1.35543e-06
4.43854e-17
4.37781e-17
4.34155e-17
4.26189e-17
4.14421e-17
3.99562e-17
3.82278e-17
3.63168e-17
3.42769e-17
3.21553e-17
2.99931e-17
2.78259e-17
2.56833e-17
2.35902e-17
2.15665e-17
1.9628e-17
1.77864e-17
1.60503e-17
1.44248e-17
1.2913e-17
1.15152e-17
1.02304e-17
9.05575e-18
7.98734e-18
7.02035e-18
6.14926e-18
5.36814e-18
4.67074e-18
4.05074e-18
3.5018e-18
3.01771e-18
2.59248e-18
2.22035e-18
1.8959e-18
1.61404e-18
1.37005e-18
1.15956e-18
9.78604e-19
8.23545e-19
6.91114e-19
5.78374e-19
4.82699e-19
4.01761e-19
3.33498e-19
2.76101e-19
2.27982e-19
1.87761e-19
1.54239e-19
1.26379e-19
1.03291e-19
8.42105e-20
6.8485e-20
5.556e-20
4.49651e-20
3.63032e-20
2.92403e-20
2.34961e-20
1.88362e-20
1.50657e-20
1.20223e-20
9.57188e-21
7.60378e-21
6.02688e-21
4.76643e-21
3.76133e-21
2.96172e-21
2.32707e-21
1.82451e-21
1.42745e-21
1.11445e-21
8.68261e-22
6.75058e-22
5.23767e-22
4.05553e-22
)
;

boundaryField
{
    sides
    {
        type            zeroGradient;
    }
    empty
    {
        type            empty;
    }
}


// ************************************************************************* //
