/*--------------------------------*- C++ -*----------------------------------*\
| =========                 |                                                 |
| \\      /  F ield         | OpenFOAM: The Open Source CFD Toolbox           |
|  \\    /   O peration     | Version:  2312                                  |
|   \\  /    A nd           | Website:  www.openfoam.com                      |
|    \\/     M anipulation  |                                                 |
\*---------------------------------------------------------------------------*/
FoamFile
{
    version     2.0;
    format      ascii;
    arch        "LSB;label=32;scalar=64";
    class       volScalarField;
    location    "2.3";
    object      T;
}
// * * * * * * * * * * * * * * * * * * * * * * * * * * * * * * * * * * * * * //

dimensions      [0 0 0 1 0 0 0];

internalField   nonuniform List<scalar> 
1000
(
0
0
0
0
0
0
0
0
0
0
0
0
0
0
0
0
0
0
0
0
0
0
0
0
0
0
0
0
0
0
0
0
0
0
0
-2.96439e-323
3.40905e-322
-4.18474e-321
5.22968e-320
-6.52601e-319
8.11548e-318
-1.00597e-316
1.24296e-315
-1.53084e-314
1.87931e-313
-2.29964e-312
2.80486e-311
-3.40995e-310
4.13207e-309
-4.99075e-308
6.00814e-307
-7.20918e-306
8.62185e-305
-1.02773e-303
1.22101e-302
-1.44583e-301
1.70636e-300
-2.00711e-299
2.35299e-298
-2.74923e-297
3.20141e-296
-3.71541e-295
4.29737e-294
-4.95367e-293
5.69081e-292
-6.5154e-291
7.43402e-290
-8.45314e-289
9.579e-288
-1.08175e-286
1.21739e-285
-1.36531e-284
1.52589e-283
-1.69943e-282
1.8861e-281
-2.08596e-280
2.29891e-279
-2.52468e-278
2.76286e-277
-3.01281e-276
3.27373e-275
-3.54458e-274
3.82417e-273
-4.11104e-272
4.40358e-271
-4.69997e-270
4.99821e-269
-5.29613e-268
5.59145e-267
-5.88173e-266
6.1645e-265
-6.4372e-264
6.69727e-263
-6.94217e-262
7.16942e-261
-7.37667e-260
7.56168e-259
-7.72242e-258
7.85705e-257
-7.96403e-256
8.04206e-255
-8.09018e-254
8.10774e-253
-8.09444e-252
8.05035e-251
-7.97585e-250
7.8717e-249
-7.73899e-248
7.57911e-247
-7.39376e-246
7.18487e-245
-6.95463e-244
6.7054e-243
-6.4397e-242
6.16013e-241
-5.86938e-240
5.57015e-239
-5.2651e-238
4.95687e-237
-4.64795e-236
4.34073e-235
-4.03743e-234
3.7401e-233
-3.45056e-232
3.17042e-231
-2.90109e-230
2.64371e-229
-2.39921e-228
2.1683e-227
-1.95145e-226
1.74896e-225
-1.5609e-224
1.3872e-223
-1.22762e-222
1.08179e-221
-9.49221e-221
8.29338e-220
-7.21486e-219
6.24954e-218
-5.38996e-217
4.62841e-216
-3.95712e-215
3.36838e-214
-2.85462e-213
2.40854e-212
-2.02315e-211
1.69186e-210
-1.40849e-209
1.16732e-208
-9.63076e-208
7.9097e-207
-6.46664e-206
5.26269e-205
-4.26323e-204
3.43766e-203
-2.75912e-202
2.20421e-201
-1.75267e-200
1.38708e-199
-1.09258e-198
8.56521e-198
-6.68268e-197
5.18897e-196
-4.00975e-195
3.08355e-194
-2.35978e-193
1.79708e-192
-1.36185e-191
1.02694e-190
-7.70559e-190
5.75306e-189
-4.2738e-188
3.15892e-187
-2.32307e-186
1.69971e-185
-1.23726e-184
8.96005e-184
-6.45522e-183
4.62648e-182
-3.29851e-181
2.33936e-180
-1.65035e-179
1.1581e-178
-8.08326e-178
5.61163e-177
-3.8747e-176
2.66085e-175
-1.81727e-174
1.23431e-173
-8.33717e-173
5.59999e-172
-3.74037e-171
2.4842e-170
-1.64054e-169
1.0772e-168
-7.0324e-168
4.56446e-167
-2.94536e-166
1.88943e-165
-1.2049e-164
7.63803e-164
-4.81285e-163
3.01436e-162
-1.87648e-161
1.16098e-160
-7.13873e-160
4.36226e-159
-2.64896e-158
1.59843e-157
-9.58387e-157
5.70951e-156
-3.37943e-155
1.98725e-154
-1.16092e-153
6.73702e-153
-3.88352e-152
2.22357e-151
-1.26449e-150
7.14162e-150
-4.00557e-149
2.23096e-148
-1.23382e-147
6.77503e-147
-3.69355e-146
1.99902e-145
-1.07399e-144
5.72743e-144
-3.03153e-143
1.59247e-142
-8.30148e-142
4.29412e-141
-2.20389e-140
1.12219e-139
-5.66838e-139
2.84006e-138
-1.41133e-137
6.95536e-137
-3.399e-136
1.64693e-135
-7.91122e-135
3.76705e-134
-1.77786e-133
8.31521e-133
-3.85363e-132
1.76941e-131
-8.04789e-131
3.62547e-130
-1.61736e-129
7.14383e-129
-3.12366e-128
1.35183e-127
-5.78921e-127
2.45281e-126
-1.02792e-125
4.25995e-125
-1.74538e-124
7.06801e-124
-2.82816e-123
1.11783e-122
-4.36285e-122
1.68086e-121
-6.38983e-121
2.39587e-120
-8.85626e-120
3.22576e-119
-1.15708e-118
4.08478e-118
-1.41824e-117
4.839e-117
-1.62105e-116
5.32615e-116
-1.71427e-115
5.39708e-115
-1.65919e-114
4.96992e-114
-1.44657e-113
4.07683e-113
-1.10718e-112
2.87777e-112
-7.085e-112
1.62393e-111
-3.35291e-111
5.76058e-111
-5.99826e-111
-9.01207e-111
8.37164e-110
-3.44812e-109
1.10136e-108
-2.97525e-108
6.83525e-108
-1.25882e-107
1.39302e-107
1.79776e-107
-1.74648e-106
6.8463e-106
-1.98198e-105
4.51355e-105
-7.40009e-105
3.70724e-105
3.16745e-104
-1.64015e-103
5.14211e-103
-1.17879e-102
1.77744e-102
-3.03715e-104
-1.13304e-101
4.82485e-101
-1.30385e-100
2.35705e-100
-1.43529e-100
-9.15906e-100
4.66709e-99
-1.31337e-98
2.32985e-98
-9.87763e-99
-1.08569e-97
4.91337e-97
-1.23923e-96
1.71852e-96
1.17763e-96
-1.53337e-95
5.09295e-95
-9.60427e-95
4.07098e-95
4.49454e-94
-1.91216e-93
4.19596e-93
-3.33281e-93
-1.40717e-92
7.09683e-92
-1.64417e-91
1.39245e-91
5.29538e-91
-2.69014e-90
5.96999e-90
-3.78192e-90
-2.38613e-89
1.02979e-88
-1.95663e-88
1.48418e-89
1.14388e-87
-3.78667e-87
5.18214e-87
6.5065e-87
-5.18395e-86
1.22331e-85
-6.52757e-86
-5.36864e-85
2.02109e-84
-2.85197e-84
-3.61894e-84
2.77329e-83
-5.94011e-83
6.52671e-84
3.3481e-82
-9.88663e-82
7.91575e-82
3.65203e-81
-1.47337e-80
1.86072e-80
3.65891e-80
-2.07091e-79
3.32351e-79
3.44635e-79
-2.83538e-78
5.24247e-78
3.25837e-78
-3.86606e-77
7.67853e-77
3.61854e-77
-5.32014e-76
1.064e-75
5.51596e-76
-7.41519e-75
1.39621e-74
1.06639e-74
-1.04005e-73
1.7078e-73
2.17598e-73
-1.44562e-72
1.86531e-72
4.25172e-72
-1.94591e-71
1.6128e-71
7.69754e-71
-2.45574e-70
5.40348e-71
1.27278e-69
-2.75728e-69
-1.87531e-69
1.89066e-68
-2.44777e-68
-6.0591e-68
2.44539e-67
-9.62347e-68
-1.18499e-66
2.56061e-66
2.21238e-66
-1.77514e-65
1.68279e-65
7.02359e-65
-2.02882e-64
-6.84922e-65
1.20958e-63
-1.44002e-63
-4.44417e-63
1.4221e-62
3.8502e-63
-8.20791e-62
9.13344e-62
3.18805e-61
-9.0823e-61
-5.38696e-61
5.53053e-60
-3.94665e-60
-2.46678e-59
5.00724e-59
7.29691e-59
-3.47141e-58
-2.92756e-60
1.83206e-57
-1.90594e-57
-7.66459e-57
1.76173e-56
2.29642e-56
-1.13561e-55
-1.52844e-56
6.03488e-55
-4.4326e-55
-2.74951e-54
4.52557e-54
1.05989e-53
-3.13391e-53
-3.13105e-53
1.82664e-52
3.49888e-53
-9.54211e-52
4.25492e-52
4.58566e-51
-4.81899e-51
-2.05036e-50
3.51608e-50
8.54826e-50
-2.17447e-49
-3.29998e-49
1.22816e-48
1.15376e-48
-6.54787e-48
-3.43893e-48
3.35722e-47
6.96565e-48
-1.67578e-46
7.30275e-48
8.2165e-46
-1.98043e-46
-3.9844e-45
1.55125e-45
1.92102e-44
-9.38369e-45
-9.24354e-44
4.96027e-44
4.44908e-43
-2.36692e-43
-2.14344e-42
1.01633e-42
1.03258e-41
-3.76189e-42
-4.96092e-41
1.01613e-41
2.36702e-40
5.26005e-43
-1.11518e-39
-2.86629e-40
5.14903e-39
2.9088e-39
-2.30689e-38
-2.17097e-38
9.88925e-38
1.40476e-37
-3.96751e-37
-8.27185e-37
1.42885e-36
4.51105e-36
-4.15877e-36
-2.28755e-35
5.74831e-36
1.07289e-34
4.10391e-35
-4.57838e-34
-4.9342e-34
1.71211e-33
3.44823e-33
-5.0744e-33
-1.92825e-32
7.21018e-33
9.13901e-32
4.52845e-32
-3.63603e-31
-5.23702e-31
1.11419e-30
3.33848e-30
-1.63663e-30
-1.61363e-29
-9.2528e-30
6.01779e-29
1.03759e-28
-1.46139e-28
-6.06928e-28
-6.2943e-29
2.51419e-27
3.23614e-27
-6.75585e-27
-2.19713e-26
9.48368e-28
9.34866e-26
1.17518e-25
-2.34765e-25
-8.05275e-25
-1.2953e-25
3.15023e-24
4.99974e-24
-5.74391e-24
-2.88987e-23
-1.95405e-23
8.81253e-23
2.14558e-22
-2.21647e-23
-9.00144e-22
-1.35547e-21
1.39866e-21
7.72065e-21
7.36331e-21
-1.8113e-20
-6.02649e-20
-3.37652e-20
1.76837e-19
4.48572e-19
1.24139e-19
-1.51387e-18
-3.29431e-18
-3.62988e-19
1.1962e-17
2.44445e-17
2.06445e-18
-8.87757e-17
-1.84975e-16
-3.86893e-17
6.15629e-16
1.41508e-15
6.58287e-16
-3.86335e-15
-1.06663e-14
-8.74818e-15
2.00694e-14
7.60588e-14
9.59266e-14
-6.02234e-14
-4.82242e-13
-8.86858e-13
-3.2463e-13
2.39878e-12
6.7958e-12
7.68519e-12
-5.42971e-12
-3.99908e-11
-7.87502e-11
-5.55566e-11
1.3322e-10
5.24403e-10
8.71471e-10
4.42357e-10
-1.80545e-09
-6.16805e-09
-1.00928e-08
-6.09808e-09
1.71711e-08
6.60532e-08
1.22177e-07
1.17621e-07
-7.25778e-08
-5.78759e-07
-1.37949e-06
-2.03094e-06
-1.38322e-06
2.43638e-06
1.13013e-05
2.50935e-05
3.82053e-05
3.51829e-05
-1.22648e-05
-0.000142582
-0.000389729
-0.000749521
-0.00112146
-0.00122567
-0.000502979
0.00198294
0.00761237
0.0182108
0.0359534
0.0631543
0.101949
0.153905
0.219627
0.298441
0.388241
0.485546
0.585815
0.68395
0.774935
0.854484
0.919571
0.968757
1.00225
1.0217
1.02979
1.02974
1.02474
1.0176
1.0104
1.00445
1.00034
0.998053
0.997255
0.99744
0.998118
0.998908
0.999572
1.00001
1.00023
1.00028
1.00023
1.00014
1.00006
1.00001
0.999978
0.999972
0.999977
0.999987
0.999995
1
1
1
1
1
1
1
1
1
1
1
1
1
1
1
1
1
1
1
1
1
1
1
1
1
1
1
1
1
1
1
1
1
1
1
1
1
1
1
1
1
1
1
1
0.999998
0.999989
0.999975
0.999962
0.999965
1.00001
1.00014
1.00039
1.00075
1.00112
1.00123
1.0005
0.998017
0.992388
0.981789
0.964047
0.936846
0.898051
0.846095
0.780373
0.701559
0.611759
0.514454
0.414185
0.31605
0.225065
0.145516
0.0804291
0.0312425
-0.00225075
-0.0217006
-0.0297937
-0.0297373
-0.024742
-0.0175969
-0.0103982
-0.00445293
-0.000335754
0.00194694
0.00274522
0.00255995
0.00188175
0.00109243
0.000427758
-1.27522e-05
-0.00022916
-0.000276521
-0.000226274
-0.000140592
-6.06083e-05
-5.53721e-06
2.1935e-05
2.82859e-05
2.27656e-05
1.33258e-05
4.93511e-06
-3.79004e-07
-2.62172e-06
-2.76235e-06
-1.91727e-06
-9.13059e-07
-1.73612e-07
2.00783e-07
2.89508e-07
2.25269e-07
1.18695e-07
3.21704e-08
-1.49003e-08
-2.85439e-08
-2.34595e-08
-1.2641e-08
-3.56716e-09
1.368e-09
2.76869e-09
2.23386e-09
1.15009e-09
2.79829e-10
-1.62354e-10
-2.63478e-10
-1.94142e-10
-8.87701e-11
-1.31999e-11
1.99892e-11
2.3677e-11
1.49971e-11
5.49193e-12
-2.54487e-13
-2.18056e-12
-1.90991e-12
-9.78776e-13
-2.23726e-13
1.36228e-13
1.98881e-13
1.30875e-13
4.86682e-14
-1.14421e-15
-1.72886e-14
-1.47024e-14
-7.04364e-15
-1.24939e-15
1.22766e-15
1.45433e-15
8.39667e-16
2.43248e-16
-6.32509e-17
-1.30084e-16
-8.83732e-17
-3.24319e-17
8.15148e-19
1.07234e-17
8.50277e-18
3.61986e-18
3.34067e-19
-8.28843e-19
-7.64434e-19
-3.6061e-19
-5.79822e-20
6.12286e-20
6.52277e-20
3.30429e-20
6.67656e-21
-4.42545e-21
-5.34392e-21
-2.83178e-21
-6.36452e-22
3.21468e-22
4.23814e-22
2.29178e-22
5.33437e-23
-2.40265e-23
-3.26946e-23
-1.76046e-23
-4.01161e-24
1.86531e-24
2.45698e-24
1.28564e-24
2.70935e-25
-1.49014e-25
-1.7958e-25
-8.91317e-26
-1.61398e-26
1.19844e-26
1.27134e-26
5.84024e-27
8.0209e-28
-9.47759e-28
-8.66606e-28
-3.5877e-28
-2.71461e-29
7.23265e-29
5.64591e-29
2.03857e-29
-2.59429e-31
-5.256e-30
-3.48498e-30
-1.0461e-30
1.56029e-31
3.60328e-31
2.01621e-31
4.6127e-32
-1.82845e-32
-2.31282e-32
-1.07735e-32
-1.51418e-33
1.57533e-33
1.37933e-33
5.19491e-34
1.05573e-35
-1.14642e-34
-7.56944e-35
-2.16112e-35
3.76548e-36
7.34849e-36
3.7662e-36
6.88016e-37
-4.25091e-37
-4.20592e-37
-1.6546e-37
-8.02871e-39
3.20329e-38
2.14801e-38
6.05617e-39
-1.04723e-39
-1.96992e-39
-9.65205e-40
-1.53317e-40
1.17568e-40
1.03814e-40
3.67542e-41
-3.97621e-43
-8.1092e-42
-4.72076e-42
-1.06458e-42
3.73012e-43
4.43535e-43
1.81052e-43
1.26847e-44
-3.04045e-44
-2.02538e-44
-5.40069e-45
1.07018e-45
1.72469e-45
7.6755e-46
8.57414e-47
-1.07357e-46
-7.8231e-47
-2.25298e-47
3.04827e-48
6.22909e-48
2.87888e-48
3.67022e-49
-3.6683e-49
-2.76094e-49
-8.04746e-50
9.81141e-51
2.11374e-50
9.67632e-51
1.18324e-51
-1.2284e-51
-8.95833e-52
-2.49209e-52
3.70201e-53
6.75324e-53
2.92276e-53
2.84421e-54
-4.00623e-54
-2.66917e-54
-6.65004e-55
1.47433e-55
2.01879e-55
7.88736e-56
4.00043e-57
-1.24723e-56
-7.24744e-57
-1.48454e-57
5.54703e-58
5.57769e-58
1.87172e-58
-4.64899e-60
-3.61748e-59
-1.76857e-59
-2.54245e-60
1.86728e-60
1.40142e-60
3.78071e-61
-5.72041e-62
-9.55579e-62
-3.79434e-62
-2.24969e-63
5.51095e-63
3.13894e-63
6.02665e-64
-2.45002e-64
-2.25235e-64
-6.89025e-65
4.76635e-66
1.41289e-65
6.10096e-66
5.74917e-67
-7.5455e-67
-4.63581e-67
-9.73684e-68
3.08509e-68
3.11766e-68
9.83264e-69
-4.77072e-70
-1.86048e-69
-8.08522e-70
-7.76899e-71
9.61562e-71
5.82702e-71
1.17917e-71
-3.94788e-72
-3.77267e-72
-1.12848e-72
8.21689e-74
2.20228e-73
8.92756e-74
6.15036e-75
-1.14174e-74
-6.25434e-75
-1.06838e-75
4.99627e-76
3.97913e-76
1.03361e-76
-1.53206e-77
-2.31649e-77
-8.13054e-78
-7.71314e-80
1.22779e-78
5.65762e-79
6.49918e-80
-5.79473e-80
-3.59357e-80
-7.18434e-81
2.28496e-81
2.11047e-81
5.89538e-82
-5.86217e-83
-1.14938e-82
-4.18255e-83
-1.12628e-84
5.77142e-84
2.6945e-84
3.16883e-85
-2.62283e-85
-1.60986e-85
-3.10715e-86
1.0279e-86
9.0061e-87
2.37367e-87
-2.96245e-88
-4.73191e-88
-1.59504e-88
1.01931e-90
2.04308e-89
)
;

boundaryField
{
    sides
    {
        type            zeroGradient;
    }
    empty
    {
        type            empty;
    }
}


// ************************************************************************* //
