/*--------------------------------*- C++ -*----------------------------------*\
| =========                 |                                                 |
| \\      /  F ield         | OpenFOAM: The Open Source CFD Toolbox           |
|  \\    /   O peration     | Version:  2312                                  |
|   \\  /    A nd           | Website:  www.openfoam.com                      |
|    \\/     M anipulation  |                                                 |
\*---------------------------------------------------------------------------*/
FoamFile
{
    version     2.0;
    format      ascii;
    arch        "LSB;label=32;scalar=64";
    class       volScalarField;
    location    "3.2";
    object      T;
}
// * * * * * * * * * * * * * * * * * * * * * * * * * * * * * * * * * * * * * //

dimensions      [0 0 0 1 0 0 0];

internalField   nonuniform List<scalar> 
1000
(
0
0
0
0
0
0
0
0
0
0
0
0
0
0
0
0
0
0
0
0
0
0
0
0
0
0
0
0
0
0
0
0
0
0
0
0
0
0
0
0
0
0
0
0
0
0
0
0
0
0
0
0
0
0
0
0
0
0
0
0
0
0
0
0
0
0
0
0
0
0
0
0
0
0
0
0
0
0
0
0
0
0
0
0
0
0
0
0
0
0
0
0
0
0
0
0
0
0
0
0
0
0
0
0
0
0
0
0
0
0
0
0
0
0
0
0
0
0
0
0
0
0
0
0
0
0
0
0
0
0
0
0
0
0
0
0
0
0
0
0
0
0
0
0
0
0
0
0
0
0
0
0
0
0
0
0
0
0
0
0
0
0
0
0
0
0
0
0
0
0
0
0
0
-4.94066e-324
2.96439e-323
-4.94066e-324
2.96439e-323
-4.94066e-324
2.96439e-323
-4.94066e-324
2.96439e-323
-4.94066e-324
2.96439e-323
-4.94066e-324
2.96439e-323
-4.94066e-324
2.96439e-323
-4.94066e-324
2.96439e-323
-4.94066e-324
2.96439e-323
-4.94066e-324
2.96439e-323
-4.94066e-324
2.96439e-323
-4.94066e-324
2.96439e-323
-4.94066e-324
2.96439e-323
-4.94066e-324
2.96439e-323
-4.94066e-324
2.96439e-323
-4.94066e-324
2.96439e-323
-4.94066e-324
2.96439e-323
-4.94066e-324
2.96439e-323
-4.94066e-324
2.96439e-323
-4.94066e-324
2.96439e-323
-4.94066e-324
2.96439e-323
-4.94066e-324
2.96439e-323
-4.94066e-324
2.96439e-323
-4.94066e-324
2.96439e-323
-4.94066e-324
2.96439e-323
-4.94066e-324
2.96439e-323
-4.94066e-324
2.96439e-323
-4.94066e-324
2.96439e-323
-4.94066e-324
2.96439e-323
-4.94066e-324
2.96439e-323
-4.94066e-324
2.96439e-323
-4.94066e-324
2.96439e-323
-4.94066e-324
2.96439e-323
-4.94066e-324
2.96439e-323
-4.94066e-324
2.96439e-323
-4.94066e-324
2.96439e-323
-4.94066e-324
2.96439e-323
-4.94066e-324
2.96439e-323
-4.94066e-324
2.96439e-323
-4.94066e-324
2.96439e-323
-4.94066e-324
2.96439e-323
-4.94066e-324
2.96439e-323
-4.94066e-324
9.88131e-324
2.96439e-323
5.43472e-323
7.41098e-323
9.88131e-323
1.77864e-322
2.14424e-321
2.38733e-320
2.98663e-320
-7.38085e-320
-9.2661e-319
-7.01339e-318
-5.6196e-317
-5.39854e-316
-5.38564e-315
-6.12971e-314
-6.89111e-313
-8.66331e-312
-1.03391e-310
-1.35706e-309
-1.64059e-308
-2.23503e-307
-2.73003e-306
-4.13667e-305
-5.21902e-304
-1.1019e-302
-1.51347e-301
-9.19584e-300
-1.21305e-298
-9.908e-296
-6.02416e-295
-1.13132e-293
-1.29442e-292
-1.60586e-292
4.07826e-292
5.05462e-291
3.81321e-290
3.05387e-289
2.93058e-288
2.92339e-287
3.31579e-286
3.71167e-285
4.63758e-284
5.51116e-283
7.21262e-282
8.76321e-281
1.18287e-279
1.45726e-278
2.06593e-277
2.59138e-276
4.07364e-275
5.30066e-274
1.04458e-272
1.44419e-271
4.29593e-270
6.09037e-269
3.02946e-267
3.79034e-266
2.98409e-264
2.64914e-263
3.7354e-261
1.60438e-260
1.536e-258
-1.41349e-258
1.53952e-256
-1.53552e-255
9.02482e-255
-4.12595e-253
-6.12458e-253
-3.84235e-251
-1.42748e-250
-9.26686e-249
-2.6169e-248
-2.47248e-246
-2.81649e-246
-3.7328e-244
-3.42734e-245
-5.73181e-242
4.11212e-242
-8.96741e-240
1.27117e-239
-1.42199e-237
2.62741e-237
-2.32814e-235
4.30886e-235
-3.83882e-233
8.91011e-233
-5.72827e-231
2.98134e-230
-6.55946e-229
9.77409e-228
-3.82649e-227
2.1447e-225
3.74215e-225
2.09646e-223
7.78942e-223
5.12533e-221
1.43088e-220
1.33229e-218
1.54271e-218
2.03436e-216
3.18972e-217
3.14089e-214
-1.8448e-214
4.92623e-212
-6.34512e-212
7.77594e-210
-1.41737e-209
1.25987e-207
-2.50436e-207
2.05697e-205
-5.28803e-205
3.05737e-203
-1.68306e-202
3.50368e-201
-5.38003e-200
1.96765e-199
-9.04908e-198
-2.33466e-197
-5.56474e-196
-3.0893e-195
-8.29693e-194
-4.8407e-193
-1.64878e-191
-9.03537e-191
-3.53694e-189
-1.72015e-188
-7.30879e-187
-3.13121e-186
-1.41191e-184
-5.45323e-184
-2.49323e-182
-9.1472e-182
-4.307e-180
-1.52142e-179
-9.55178e-178
-2.62284e-177
-2.48502e-175
-1.39537e-175
-3.26529e-173
1.19164e-172
-3.22209e-171
5.01521e-170
-1.45914e-169
-2.94805e-171
4.40877e-167
1.49832e-168
1.08772e-166
3.0071e-164
3.42895e-165
-8.32904e-164
1.31103e-161
3.64117e-161
-2.22911e-160
9.75801e-160
3.58724e-158
-9.42539e-158
-6.21236e-157
1.42752e-155
5.38037e-155
-7.35898e-154
-8.30039e-154
5.34622e-152
5.75664e-152
-2.0757e-150
-1.16662e-150
1.26242e-148
8.88201e-149
-5.71144e-147
-3.59723e-147
3.17375e-145
2.93714e-145
-1.52585e-143
-1.85377e-143
6.61944e-142
1.24721e-141
-2.49238e-140
-9.66838e-140
7.2111e-139
5.7698e-138
-1.60894e-137
-3.46445e-136
6.368e-137
1.82856e-134
1.77875e-134
-6.75472e-133
-2.52489e-132
1.2461e-131
1.3427e-130
-1.17948e-130
-1.00048e-128
-1.49627e-128
2.05544e-127
9.17881e-127
-2.83076e-126
-1.05319e-124
-1.43961e-124
1.89289e-123
8.9216e-123
-1.9418e-122
-8.37809e-121
-1.593e-120
1.07437e-119
1.29705e-118
4.98708e-119
-4.27359e-117
-1.90405e-116
2.27052e-116
1.12683e-114
2.41714e-114
-1.01488e-113
-2.50691e-112
-3.73746e-112
2.56747e-111
4.85062e-110
6.02474e-110
-5.3234e-109
-5.56653e-108
-3.63413e-108
1.0653e-106
1.62635e-105
2.23536e-105
-1.2834e-104
-2.32039e-103
-3.36916e-103
1.68438e-102
3.56171e-101
8.59284e-101
-1.32968e-100
-4.4426e-99
-2.30585e-98
-8.46697e-99
4.18248e-97
4.52471e-96
5.24817e-96
-2.99831e-95
-5.61471e-94
-2.014e-93
-1.33745e-95
4.22144e-92
4.48549e-91
6.2313e-91
-1.95719e-90
-4.01907e-89
-2.74482e-88
-2.5968e-88
1.8489e-87
2.87883e-86
1.12178e-85
4.72967e-86
-1.38774e-84
-1.73305e-83
-6.31798e-83
-2.79162e-83
7.13272e-82
8.67744e-81
4.02723e-80
3.14673e-80
-2.75241e-79
-3.59577e-78
-2.38718e-77
-2.77679e-77
7.20269e-77
1.21842e-75
1.02254e-74
2.05939e-74
-4.72336e-75
-3.38275e-73
-3.28847e-72
-2.69122e-71
-2.09307e-70
-1.58812e-69
-1.18315e-68
-8.67072e-68
-6.27339e-67
-4.27843e-66
-1.09399e-65
-5.59702e-66
7.52574e-65
7.31018e-64
5.34363e-63
3.62209e-62
2.37862e-61
1.53184e-60
9.71047e-60
6.06642e-59
3.73672e-58
2.26989e-57
1.35998e-56
8.03743e-56
4.686e-55
2.6954e-54
1.52974e-53
8.56683e-53
4.73441e-52
2.58219e-51
1.39002e-50
7.38571e-50
3.87378e-49
2.00577e-48
1.02531e-47
5.17474e-47
2.57875e-46
1.26894e-45
6.16613e-45
2.95902e-44
1.4024e-43
6.56456e-43
3.03512e-42
1.38613e-41
6.2533e-41
2.78686e-40
1.22699e-39
5.33709e-39
2.29365e-38
9.73929e-38
4.08621e-37
1.69405e-36
6.93999e-36
2.80954e-35
1.12401e-34
4.44402e-34
1.73648e-33
6.70603e-33
2.55961e-32
9.65622e-32
3.60062e-31
1.32708e-30
4.83473e-30
1.74108e-29
6.19784e-29
2.18097e-28
7.5867e-28
2.60891e-27
8.86898e-27
2.9806e-26
9.90275e-26
3.25263e-25
1.0562e-24
3.39072e-24
1.07616e-23
3.37679e-23
1.04756e-22
3.21289e-22
9.74233e-22
2.92064e-21
8.65648e-21
2.5366e-20
7.3487e-20
2.10481e-19
5.96016e-19
1.66856e-18
4.61807e-18
1.2636e-17
3.41811e-17
9.14074e-17
2.41652e-16
6.31546e-16
1.63161e-15
4.16696e-15
1.05196e-14
2.62513e-14
6.47532e-14
1.57876e-13
3.80457e-13
9.06181e-13
2.13319e-12
4.96289e-12
1.14107e-11
2.59267e-11
5.82129e-11
1.29155e-10
2.83138e-10
6.13287e-10
1.31245e-09
2.77479e-09
5.7954e-09
1.19568e-08
2.43667e-08
4.90455e-08
9.74974e-08
1.91402e-07
3.71042e-07
7.10218e-07
1.34219e-06
2.50409e-06
4.61169e-06
8.38307e-06
1.50395e-05
2.66261e-05
4.65129e-05
8.01645e-05
0.000136295
0.000228568
0.00037803
0.000616529
0.000991366
0.00157146
0.00245522
0.0037803
0.00573504
0.0085712
0.0126172
0.0182902
0.0261049
0.0366762
0.0507127
0.0689966
0.0923476
0.121568
0.157368
0.200277
0.250544
0.308038
0.372164
0.441809
0.515338
0.59065
0.665297
0.736672
0.802241
0.859796
0.90769
0.945004
0.971627
0.988274
0.996613
0.999451
0.999963
0.999999
1
1
1
1
1
1
1
1
1
1
1
1
1
1
1
1
1
1
1
1
1
1
1
1
1
1
1
1
1
1
1
1
1
1
1
1
1
1
1
1
1
1
1
1
1
1
1
1
1
1
1
1
1
0.999999
0.999999
0.999997
0.999995
0.999992
0.999985
0.999973
0.999953
0.99992
0.999864
0.999771
0.999622
0.999383
0.999008
0.998427
0.997542
0.996216
0.99426
0.991421
0.987373
0.981696
0.973876
0.963299
0.949255
0.930962
0.907602
0.87837
0.842559
0.799637
0.749358
0.691854
0.627719
0.558069
0.484537
0.409226
0.334585
0.26322
0.197665
0.140125
0.0922486
0.0549516
0.0283444
0.0117104
0.00338018
0.000547865
3.71189e-05
7.57664e-07
3.43183e-09
2.67484e-12
3.05026e-16
2.62455e-20
2.29606e-24
2.02065e-28
1.77669e-32
1.55582e-36
1.3558e-40
1.17649e-44
1.01778e-48
8.78932e-53
7.58544e-57
6.5475e-61
5.65498e-65
4.88778e-69
4.22754e-73
3.65832e-77
3.16667e-81
2.74137e-85
2.37311e-89
2.05411e-93
1.77775e-97
1.53839e-101
1.33114e-105
1.15175e-109
9.96511e-114
8.62201e-118
7.46005e-122
6.45481e-126
5.58513e-130
4.83269e-134
4.18165e-138
3.61832e-142
3.13088e-146
2.70909e-150
2.34412e-154
2.0283e-158
1.75503e-162
1.51857e-166
1.31397e-170
1.13694e-174
9.83755e-179
8.51209e-183
7.36521e-187
6.37285e-191
5.51419e-195
4.7712e-199
4.12832e-203
3.57206e-207
3.09073e-211
2.67426e-215
2.3139e-219
2.00209e-223
1.73229e-227
1.49885e-231
1.29686e-235
1.12209e-239
9.70865e-244
8.40019e-248
7.26805e-252
6.28847e-256
5.4409e-260
4.70754e-264
4.07302e-268
3.52401e-272
3.04899e-276
2.63799e-280
2.28238e-284
1.9747e-288
1.70849e-292
1.47817e-296
1.27889e-300
1.10647e-304
9.57289e-309
8.2822e-313
7.16551e-317
6.20052e-321
0
0
0
0
0
0
0
0
0
0
0
0
0
0
0
0
0
0
0
0
0
0
0
0
0
0
0
0
0
0
0
0
0
0
0
0
0
0
0
0
0
0
0
0
0
0
0
0
0
0
0
0
0
0
0
0
0
0
0
0
0
0
0
0
0
0
0
0
0
0
0
0
0
0
0
0
0
0
0
0
0
0
0
0
0
0
0
0
0
0
0
0
0
0
0
0
0
0
0
0
0
0
0
0
0
0
0
0
0
0
0
0
0
0
0
0
0
0
0
0
0
0
0
0
0
0
0
0
0
0
0
0
0
0
)
;

boundaryField
{
    sides
    {
        type            zeroGradient;
    }
    empty
    {
        type            empty;
    }
}


// ************************************************************************* //
