/*--------------------------------*- C++ -*----------------------------------*\
| =========                 |                                                 |
| \\      /  F ield         | OpenFOAM: The Open Source CFD Toolbox           |
|  \\    /   O peration     | Version:  2312                                  |
|   \\  /    A nd           | Website:  www.openfoam.com                      |
|    \\/     M anipulation  |                                                 |
\*---------------------------------------------------------------------------*/
FoamFile
{
    version     2.0;
    format      ascii;
    arch        "LSB;label=32;scalar=64";
    class       volScalarField;
    location    "1.3";
    object      T;
}
// * * * * * * * * * * * * * * * * * * * * * * * * * * * * * * * * * * * * * //

dimensions      [0 0 0 1 0 0 0];

internalField   nonuniform List<scalar> 
1000
(
0
0
0
0
0
0
0
0
0
0
0
0
0
0
0
0
0
0
0
0
0
0
0
0
0
0
0
0
0
0
0
0
0
0
0
0
0
0
0
0
0
0
0
0
0
0
0
0
0
0
0
0
0
0
0
0
0
0
0
0
0
0
0
0
0
0
0
0
0
0
0
0
0
0
0
0
0
0
0
0
0
0
0
0
0
0
0
0
0
0
0
0
0
0
0
0
0
0
0
0
0
0
0
0
0
0
0
0
0
0
0
0
0
0
0
0
0
0
0
0
0
0
0
0
0
0
0
0
0
0
0
0
0
0
0
0
0
0
0
0
0
0
0
0
0
0
0
0
0
0
0
0
0
0
0
0
0
0
0
0
0
0
0
0
0
0
0
0
0
0
0
0
0
0
0
0
0
0
0
0
0
0
0
0
0
0
0
0
0
0
0
0
0
0
0
0
0
0
0
0
0
0
0
0
0
0
0
0
0
0
0
0
0
0
0
0
0
0
0
0
0
0
0
0
0
0
0
0
0
0
0
0
0
0
0
0
0
0
0
0
0
0
0
0
0
0
0
0
0
0
0
0
0
0
0
0
0
0
0
0
0
0
0
0
0
0
0
0
0
0
0
0
0
0
0
0
0
0
0
0
0
0
0
0
0
0
0
0
0
0
0
0
0
0
0
0
0
0
0
0
0
0
0
0
0
0
0
0
0
0
0
0
0
0
0
0
0
0
0
0
0
0
0
0
0
0
0
0
0
0
0
0
0
0
0
0
0
0
0
0
0
0
0
0
0
0
0
0
0
0
0
0
0
0
0
0
0
0
0
0
0
0
0
0
0
0
0
0
0
0
0
0
0
0
0
0
0
0
0
0
0
0
0
0
0
0
0
0
0
0
0
0
0
0
0
0
0
0
0
0
0
0
0
0
0
0
0
0
0
0
0
0
0
0
0
0
0
0
0
0
0
0
0
0
0
0
0
0
0
0
0
0
0
0
0
0
0
0
0
0
0
0
0
0
0
0
0
0
0
0
7.54921e-38
6.32075e-36
2.64846e-34
7.40484e-33
1.55414e-31
2.61182e-30
3.66107e-29
4.40271e-28
4.63696e-27
4.345e-26
3.66762e-25
2.81699e-24
1.98516e-23
1.29255e-22
7.82191e-22
4.42201e-21
2.34587e-20
1.17237e-19
5.53876e-19
2.48135e-18
1.05706e-17
4.29277e-17
1.66567e-16
6.18802e-16
2.20522e-15
7.55175e-15
2.48906e-14
7.90787e-14
2.42505e-13
7.18748e-13
2.06132e-12
5.72681e-12
1.54289e-11
4.03497e-11
1.02525e-10
2.53329e-10
6.09202e-10
1.42692e-09
3.2578e-09
7.255e-09
1.57699e-08
3.34795e-08
6.94621e-08
1.40925e-07
2.79732e-07
5.43549e-07
1.03443e-06
1.92902e-06
3.52658e-06
6.32334e-06
1.11251e-05
1.92137e-05
3.25867e-05
5.42955e-05
8.8909e-05
0.000143135
0.00022663
0.000353032
0.000541228
0.000816882
0.0012142
0.0017779
0.00256536
0.0036487
0.0051169
0.00707752
0.00965792
0.0130058
0.0172886
0.0226922
0.0294171
0.0376747
0.0476808
0.0596482
0.0737783
0.0902514
0.109217
0.130785
0.155015
0.18191
0.211412
0.243398
0.277678
0.314
0.352056
0.391488
0.431899
0.472868
0.513959
0.55474
0.594792
0.633723
0.671181
0.70686
0.740506
0.771924
0.800976
0.827584
0.851721
0.873411
0.892721
0.909754
0.924642
0.937538
0.948609
0.95803
0.965975
0.97262
0.978128
0.982656
0.986347
0.989331
0.991722
0.993624
0.995125
0.996299
0.99721
0.997911
0.998448
0.998854
0.99916
0.999389
0.999558
0.999683
0.999774
0.99984
0.999887
0.999921
0.999945
0.999962
0.999974
0.999982
0.999988
0.999992
0.999995
0.999996
0.999998
0.999998
0.999999
0.999999
1
1
1
1
1
0.999999
0.999999
0.999998
0.999996
0.999994
0.999989
0.999981
0.999967
0.999946
0.999911
0.999857
0.999773
0.999647
0.999459
0.999183
0.998786
0.998222
0.997435
0.996351
0.994883
0.992922
0.990342
0.986994
0.982711
0.977308
0.970583
0.962325
0.952319
0.940352
0.926222
0.909749
0.890783
0.869215
0.844985
0.81809
0.788588
0.756602
0.722322
0.686
0.647944
0.608512
0.568101
0.527132
0.486041
0.44526
0.405208
0.366277
0.328819
0.29314
0.259494
0.228076
0.199024
0.172416
0.148279
0.126589
0.107279
0.0902458
0.0753577
0.0624617
0.0513908
0.0419705
0.0340246
0.0273803
0.0218719
0.0173439
0.013653
0.0106694
0.00827751
0.00637552
0.00487532
0.00370148
0.00279029
0.00208852
0.00155224
0.00114559
0.000839587
0.00061106
0.000441674
0.000317058
0.000226053
0.000160079
0.000112598
7.86714e-05
5.46023e-05
3.76471e-05
2.57867e-05
1.75478e-05
1.1864e-05
7.96962e-06
5.31939e-06
3.52794e-06
2.32506e-06
1.52272e-06
9.91045e-07
6.41024e-07
4.12079e-07
2.63286e-07
1.672e-07
1.05541e-07
6.62218e-08
4.1304e-08
2.56101e-08
1.57861e-08
9.67391e-09
5.89396e-09
3.57032e-09
2.15039e-09
1.28782e-09
7.66899e-10
4.54129e-10
2.6742e-10
1.56603e-10
9.12037e-11
5.28257e-11
3.04309e-11
1.74355e-11
9.93624e-12
5.63235e-12
3.1758e-12
1.78125e-12
9.93853e-13
5.51642e-13
3.0461e-13
1.67339e-13
9.14601e-14
4.97346e-14
2.69087e-14
1.4486e-14
7.75953e-15
4.1359e-15
2.19363e-15
1.15779e-15
6.08111e-16
3.17858e-16
1.65346e-16
8.56003e-17
4.41055e-17
2.26181e-17
1.15446e-17
5.86508e-18
2.96586e-18
1.49287e-18
7.47993e-19
3.73071e-19
1.85231e-19
9.15534e-20
4.50492e-20
2.20679e-20
1.07624e-20
5.22562e-21
2.52617e-21
1.21588e-21
5.82687e-22
2.78039e-22
1.32102e-22
6.24975e-23
2.94422e-23
1.38116e-23
6.452e-24
3.00144e-24
1.39047e-24
6.41502e-25
2.94747e-25
1.34873e-25
6.1466e-26
2.78989e-26
1.26122e-26
5.67882e-27
2.5468e-27
1.13765e-27
5.06191e-28
2.24344e-28
9.90426e-29
4.35555e-29
1.90804e-29
8.32651e-30
3.61975e-30
1.56763e-30
6.76337e-31
2.90702e-31
1.24482e-31
5.31063e-32
2.25722e-32
9.55871e-33
4.03301e-33
1.6954e-33
7.10126e-34
2.96365e-34
1.2324e-34
5.1065e-35
2.10836e-35
8.67407e-36
3.55605e-36
1.45273e-36
5.914e-37
2.3992e-37
9.69938e-38
3.90773e-38
1.56896e-38
6.27792e-39
2.50347e-39
9.9494e-40
3.94083e-40
1.55568e-40
6.12073e-41
2.40017e-41
9.38086e-42
3.65437e-42
1.41892e-42
5.49143e-43
2.11837e-43
8.14537e-44
3.12192e-44
1.19272e-44
4.54225e-45
1.72433e-45
6.52525e-46
2.46153e-46
9.25655e-47
3.47006e-47
1.29681e-47
4.83134e-48
1.79441e-48
6.64419e-49
2.45265e-49
9.02622e-50
3.31178e-50
1.21145e-50
4.41819e-51
1.60651e-51
5.82411e-52
2.10517e-52
7.58684e-53
2.72619e-53
9.76743e-54
3.48929e-54
1.24289e-54
4.41437e-55
1.56334e-55
5.5207e-56
1.94398e-56
6.82581e-57
2.38993e-57
8.34428e-58
2.90517e-58
1.00864e-58
3.49215e-59
1.20571e-59
4.15134e-60
1.4254e-60
4.88084e-61
1.66673e-61
5.67612e-62
1.92779e-62
6.52973e-63
2.20577e-63
7.43126e-64
2.49692e-64
8.36741e-65
2.79657e-65
9.32214e-66
3.09929e-66
1.02771e-66
3.39897e-67
1.12123e-67
3.68908e-68
1.21065e-68
3.96283e-69
1.29384e-69
4.21353e-70
1.3687e-70
4.43478e-71
1.43331e-71
4.6208e-72
1.48596e-72
4.76666e-73
1.52525e-73
4.86849e-74
1.55015e-74
4.92367e-75
1.56005e-75
4.93095e-76
1.55477e-76
4.89047e-77
1.53457e-77
4.80372e-78
1.50013e-78
4.67352e-79
1.45253e-79
4.50379e-80
1.39317e-80
4.29942e-81
1.32372e-81
4.06601e-82
1.24603e-82
3.80963e-83
1.16207e-83
3.53656e-84
1.07382e-84
3.25306e-85
9.83242e-86
2.96512e-86
8.92156e-87
2.6783e-87
8.02237e-88
2.39757e-88
7.14944e-89
2.12718e-89
6.31503e-90
1.87062e-90
5.52892e-91
1.63057e-91
4.79834e-92
1.40895e-92
4.12815e-93
1.20691e-93
3.52093e-94
1.02496e-94
2.97729e-95
8.63e-96
2.49617e-96
7.20471e-97
2.0751e-97
5.96413e-98
1.71057e-98
4.89583e-99
1.39831e-99
3.98546e-100
1.13358e-100
3.21757e-101
9.11397e-102
2.5763e-102
7.26766e-103
2.04601e-103
5.74825e-104
1.6117e-104
4.50977e-105
1.25936e-105
3.50972e-106
9.76169e-107
2.70964e-107
7.50644e-108
2.07537e-108
5.72661e-109
1.57704e-109
4.33448e-110
1.189e-110
3.25518e-111
8.89457e-112
2.42567e-112
6.60236e-113
1.79361e-113
4.86322e-114
1.31609e-114
3.55484e-115
9.58353e-116
2.57874e-116
6.92574e-117
1.85655e-117
4.9674e-118
1.32659e-118
3.53617e-119
9.40848e-120
2.49861e-120
6.62328e-121
1.75245e-121
4.62826e-122
1.22009e-122
3.2105e-123
8.43255e-124
2.21083e-124
5.78581e-125
1.51142e-125
3.94118e-126
1.02585e-126
2.66541e-127
6.913e-128
1.78976e-128
4.62543e-129
1.19327e-129
3.07298e-130
7.89976e-131
2.02724e-131
5.19321e-132
1.32803e-132
3.39019e-133
8.63946e-134
2.19784e-134
5.58157e-135
1.41504e-135
3.58125e-136
9.04812e-137
2.28213e-137
5.74623e-138
1.44441e-138
3.6246e-139
9.08025e-140
2.27093e-140
5.67e-141
1.4133e-141
3.51691e-142
8.73706e-143
2.16695e-143
5.36554e-144
1.32636e-144
)
;

boundaryField
{
    sides
    {
        type            zeroGradient;
    }
    empty
    {
        type            empty;
    }
}


// ************************************************************************* //
