/*--------------------------------*- C++ -*----------------------------------*\
| =========                 |                                                 |
| \\      /  F ield         | OpenFOAM: The Open Source CFD Toolbox           |
|  \\    /   O peration     | Version:  2312                                  |
|   \\  /    A nd           | Website:  www.openfoam.com                      |
|    \\/     M anipulation  |                                                 |
\*---------------------------------------------------------------------------*/
FoamFile
{
    version     2.0;
    format      ascii;
    arch        "LSB;label=32;scalar=64";
    class       volScalarField;
    location    "0.6";
    object      T;
}
// * * * * * * * * * * * * * * * * * * * * * * * * * * * * * * * * * * * * * //

dimensions      [0 0 0 1 0 0 0];

internalField   nonuniform List<scalar> 
1000
(
4.69589e-275
2.98429e-274
2.1916e-273
1.61211e-272
1.18443e-271
8.69116e-271
6.36942e-270
4.66202e-269
3.40799e-268
2.48811e-267
1.81421e-266
1.32114e-265
9.6085e-265
6.97915e-264
5.06277e-263
3.66785e-262
2.65381e-261
1.91762e-260
1.38385e-259
9.9734e-259
7.17839e-258
5.15985e-257
3.70401e-256
2.6554e-255
1.90112e-254
1.35928e-253
9.70562e-253
6.92077e-252
4.92832e-251
3.50473e-250
2.48898e-249
1.7652e-248
1.25018e-247
8.84212e-247
6.24513e-246
4.4048e-245
3.10248e-244
2.18217e-243
1.53271e-242
1.07504e-241
7.52974e-241
5.26651e-240
3.67833e-239
2.56545e-238
1.78672e-237
1.2426e-236
8.62941e-236
5.98422e-235
4.14388e-234
2.86535e-233
1.97842e-232
1.36403e-231
9.39069e-231
6.45553e-230
4.43125e-229
3.03724e-228
2.07869e-227
1.42054e-226
9.69319e-226
6.60436e-225
4.49306e-224
3.05209e-223
2.07012e-222
1.40196e-221
9.48009e-221
6.40067e-220
4.3149e-219
2.90435e-218
1.95188e-217
1.30974e-216
8.7749e-216
5.86975e-215
3.92028e-214
2.61415e-213
1.74044e-212
1.15691e-211
7.67798e-211
5.08748e-210
3.36561e-209
2.22293e-208
1.46585e-207
9.65044e-207
6.34308e-206
4.16242e-205
2.72697e-204
1.78362e-203
1.16468e-202
7.59264e-202
4.9415e-201
3.2107e-200
2.08265e-199
1.34866e-198
8.71878e-198
5.62698e-197
3.62542e-196
2.33185e-195
1.49727e-194
9.59741e-194
6.1413e-193
3.92297e-192
2.50159e-191
1.59243e-190
1.01192e-189
6.41898e-189
4.06465e-188
2.56928e-187
1.62117e-186
1.02111e-185
6.42003e-185
4.02924e-184
2.52421e-183
1.57849e-182
9.85303e-182
6.13911e-181
3.81808e-180
2.37021e-179
1.46868e-178
9.08372e-178
5.60779e-177
3.45549e-176
2.12526e-175
1.30467e-174
7.99401e-174
4.88885e-173
2.98416e-172
1.81806e-171
1.1055e-170
6.70924e-170
4.06394e-169
2.45685e-168
1.48239e-167
8.92681e-167
5.36508e-166
3.21809e-165
1.92646e-164
1.15096e-163
6.8626e-163
4.08364e-162
2.42511e-161
1.43726e-160
8.50081e-160
5.01763e-159
2.95561e-158
1.73741e-157
1.01921e-156
5.96651e-156
3.48558e-155
2.03199e-154
1.18211e-153
6.86239e-153
3.97535e-152
2.29801e-151
1.32556e-150
7.6299e-150
4.3823e-149
2.51157e-148
1.43631e-147
8.19597e-147
4.66663e-146
2.65125e-145
1.50293e-144
8.50085e-144
4.79754e-143
2.70149e-142
1.51779e-141
8.50824e-141
4.75864e-140
2.65544e-139
1.47842e-138
8.21222e-138
4.55115e-137
2.51637e-136
1.38809e-135
7.63915e-135
4.19423e-134
2.29739e-133
1.25541e-132
6.84393e-132
3.72208e-131
2.0194e-130
1.09298e-129
5.90129e-129
3.17852e-128
1.70781e-127
9.15352e-127
4.894e-126
2.61013e-125
1.3886e-124
7.36897e-124
3.90071e-123
2.0596e-122
1.08472e-121
5.69832e-121
2.98581e-120
1.56049e-119
8.13455e-119
4.2294e-118
2.19326e-117
1.13439e-116
5.85176e-116
3.01066e-115
1.54483e-114
7.90568e-114
4.03487e-113
2.05375e-112
1.04252e-111
5.27765e-111
2.66443e-110
1.34145e-109
6.73503e-109
3.37208e-108
1.68361e-107
8.38238e-107
4.16166e-106
2.06031e-105
1.0171e-104
5.00664e-104
2.45742e-103
1.2027e-102
5.86908e-102
2.85571e-101
1.38542e-100
6.70141e-100
3.23192e-99
1.55403e-98
7.45002e-98
3.56078e-97
1.69674e-96
8.06055e-96
3.81753e-95
1.80246e-94
8.48403e-94
3.98097e-93
1.86216e-92
8.68324e-92
4.0362e-91
1.87018e-90
8.6379e-90
3.97683e-89
1.82501e-88
8.348e-88
3.80612e-87
1.72965e-86
7.83431e-86
3.53674e-85
1.59131e-84
7.13597e-84
3.18923e-83
1.42052e-82
6.30558e-82
2.78943e-81
1.22973e-80
5.40252e-80
2.36521e-79
1.03186e-78
4.48579e-78
1.94321e-77
8.38783e-77
3.60763e-76
1.54607e-75
6.60177e-75
2.80871e-74
1.19058e-73
5.02816e-73
2.11566e-72
8.86875e-72
3.7038e-71
1.54096e-70
6.38681e-70
2.63704e-69
1.08462e-68
4.44387e-68
1.81365e-67
7.37304e-67
2.98558e-66
1.20417e-65
4.83747e-65
1.93556e-64
7.71332e-64
3.06135e-63
1.21007e-62
4.76349e-62
1.86742e-61
7.29043e-61
2.83429e-60
1.09725e-59
4.22989e-59
1.62367e-58
6.20585e-58
2.36173e-57
8.94889e-57
3.37605e-56
1.26805e-55
4.74176e-55
1.76525e-54
6.54217e-54
2.41366e-53
8.86452e-53
3.24076e-52
1.17934e-51
4.27184e-51
1.54016e-50
5.5268e-50
1.97392e-49
7.01643e-49
2.48211e-48
8.7384e-48
3.06148e-47
1.06735e-46
3.70293e-46
1.27829e-45
4.39085e-45
1.50066e-44
5.10294e-44
1.72642e-43
5.81089e-43
1.94579e-42
6.48173e-42
2.14789e-41
7.08012e-41
2.32147e-40
7.57117e-40
2.45597e-39
7.92369e-39
2.54249e-38
8.11336e-38
2.57475e-37
8.12543e-37
2.54985e-36
7.95655e-36
2.46864e-35
7.61543e-35
2.3357e-34
7.12213e-34
2.15899e-33
6.50614e-33
1.94898e-32
5.80342e-32
1.71764e-31
5.05285e-31
1.47732e-30
4.29264e-30
1.23957e-29
3.55703e-29
1.01428e-28
2.87383e-28
8.09049e-28
2.26296e-27
6.28853e-27
1.73607e-26
4.76112e-26
1.29704e-25
3.50978e-25
9.43329e-25
2.51815e-24
6.67592e-24
1.75764e-23
4.59531e-23
1.193e-22
3.07529e-22
7.87089e-22
2.00001e-21
5.04528e-21
1.26345e-20
3.14071e-20
7.74938e-20
1.8978e-19
4.6127e-19
1.11263e-18
2.66329e-18
6.32593e-18
1.49089e-17
3.48622e-17
8.08773e-17
1.86137e-16
4.24958e-16
9.62364e-16
2.16165e-15
4.81566e-15
1.06396e-14
2.33109e-14
5.0645e-14
1.091e-13
2.33023e-13
4.93432e-13
1.03582e-12
2.15544e-12
4.44588e-12
9.08907e-12
1.84159e-11
3.69783e-11
7.35791e-11
1.45073e-10
2.83408e-10
5.48534e-10
1.0518e-09
1.99787e-09
3.75909e-09
7.00563e-09
1.2931e-08
2.36381e-08
4.27916e-08
7.67079e-08
1.36154e-07
2.39279e-07
4.16326e-07
7.17118e-07
1.22278e-06
2.06389e-06
3.44806e-06
5.70151e-06
9.33058e-06
1.51115e-05
2.42194e-05
3.84111e-05
6.02789e-05
9.35988e-05
0.000143798
0.000218572
0.000328686
0.000488987
0.000719664
0.00104777
0.00150903
0.00214988
0.00302977
0.0042236
0.0058241
0.0079442
0.0107189
0.0143064
0.0188889
0.0246711
0.0318779
0.0407505
0.0515395
0.064497
0.0798662
0.0978698
0.118697
0.14249
0.16933
0.199229
0.232118
0.267839
0.306148
0.346714
0.389128
0.432913
0.477543
0.522457
0.567087
0.610872
0.653286
0.693852
0.732161
0.767882
0.800771
0.83067
0.85751
0.881303
0.90213
0.920134
0.935503
0.948461
0.959249
0.968122
0.975329
0.981111
0.985694
0.989281
0.992056
0.994176
0.995776
0.99697
0.99785
0.998491
0.998952
0.99928
0.999511
0.999671
0.999781
0.999856
0.999906
0.99994
0.999962
0.999976
0.999985
0.999991
0.999994
0.999997
0.999998
0.999999
0.999999
1
1
1
1
1
1
1
1
1
1
1
1
0.999999
0.999999
0.999998
0.999997
0.999994
0.999991
0.999985
0.999976
0.999962
0.99994
0.999906
0.999856
0.999781
0.999671
0.999511
0.99928
0.998952
0.998491
0.99785
0.99697
0.995776
0.994176
0.992056
0.989281
0.985694
0.981111
0.975329
0.968122
0.959249
0.948461
0.935503
0.920134
0.90213
0.881303
0.85751
0.83067
0.800771
0.767882
0.732161
0.693852
0.653286
0.610872
0.567087
0.522457
0.477543
0.432913
0.389128
0.346714
0.306148
0.267839
0.232118
0.199229
0.16933
0.14249
0.118697
0.0978698
0.0798662
0.064497
0.0515395
0.0407505
0.0318779
0.0246711
0.0188889
0.0143064
0.0107189
0.0079442
0.0058241
0.0042236
0.00302977
0.00214988
0.00150903
0.00104777
0.000719664
0.000488987
0.000328686
0.000218572
0.000143798
9.35988e-05
6.02789e-05
3.84111e-05
2.42194e-05
1.51115e-05
9.33058e-06
5.70151e-06
3.44806e-06
2.06389e-06
1.22278e-06
7.17118e-07
4.16326e-07
2.39279e-07
1.36154e-07
7.67079e-08
4.27916e-08
2.36381e-08
1.2931e-08
7.00563e-09
3.75909e-09
1.99787e-09
1.0518e-09
5.48534e-10
2.83408e-10
1.45073e-10
7.35791e-11
3.69783e-11
1.84159e-11
9.08907e-12
4.44588e-12
2.15544e-12
1.03582e-12
4.93432e-13
2.33023e-13
1.091e-13
5.0645e-14
2.33109e-14
1.06396e-14
4.81566e-15
2.16165e-15
9.62364e-16
4.24958e-16
1.86137e-16
8.08773e-17
3.48622e-17
1.49089e-17
6.32593e-18
2.66329e-18
1.11263e-18
4.6127e-19
1.8978e-19
7.74938e-20
3.14071e-20
1.26345e-20
5.04528e-21
2.00001e-21
7.87089e-22
3.07529e-22
1.193e-22
4.59531e-23
1.75764e-23
6.67592e-24
2.51815e-24
9.43329e-25
3.50978e-25
1.29704e-25
4.76112e-26
1.73607e-26
6.28853e-27
2.26296e-27
8.09049e-28
2.87383e-28
1.01428e-28
3.55703e-29
1.23957e-29
4.29264e-30
1.47732e-30
5.05285e-31
1.71764e-31
5.80342e-32
1.94898e-32
6.50614e-33
2.15899e-33
7.12213e-34
2.3357e-34
7.61543e-35
2.46864e-35
7.95655e-36
2.54985e-36
8.12543e-37
2.57475e-37
8.11336e-38
2.54249e-38
7.92369e-39
2.45597e-39
7.57117e-40
2.32147e-40
7.08012e-41
2.14789e-41
6.48173e-42
1.94579e-42
5.81089e-43
1.72642e-43
5.10294e-44
1.50066e-44
4.39085e-45
1.27829e-45
3.70293e-46
1.06735e-46
3.06148e-47
8.7384e-48
2.48211e-48
7.01643e-49
1.97392e-49
5.5268e-50
1.54016e-50
4.27184e-51
1.17934e-51
3.24076e-52
8.86452e-53
2.41366e-53
6.54217e-54
1.76525e-54
4.74176e-55
1.26805e-55
3.37605e-56
8.94889e-57
2.36173e-57
6.20585e-58
1.62367e-58
4.22989e-59
1.09725e-59
2.83429e-60
7.29043e-61
1.86742e-61
4.76349e-62
1.21007e-62
3.06135e-63
7.71332e-64
1.93556e-64
4.83747e-65
1.20417e-65
2.98558e-66
7.37304e-67
1.81365e-67
4.44387e-68
1.08462e-68
2.63704e-69
6.38681e-70
1.54096e-70
3.7038e-71
8.86875e-72
2.11566e-72
5.02816e-73
1.19058e-73
2.80871e-74
6.60177e-75
1.54607e-75
3.60763e-76
8.38783e-77
1.94321e-77
4.48579e-78
1.03186e-78
2.36521e-79
5.40252e-80
1.22973e-80
2.78943e-81
6.30558e-82
1.42052e-82
3.18923e-83
7.13597e-84
1.59131e-84
3.53674e-85
7.83431e-86
1.72965e-86
3.80612e-87
8.348e-88
1.82501e-88
3.97683e-89
8.6379e-90
1.87018e-90
4.0362e-91
8.68324e-92
1.86216e-92
3.98097e-93
8.48403e-94
1.80246e-94
3.81753e-95
8.06055e-96
1.69674e-96
3.56078e-97
7.45002e-98
1.55403e-98
3.23192e-99
6.70141e-100
1.38542e-100
2.85571e-101
5.86908e-102
1.2027e-102
2.45742e-103
5.00664e-104
1.0171e-104
2.06031e-105
4.16166e-106
8.38238e-107
1.68361e-107
3.37208e-108
6.73503e-109
1.34145e-109
2.66443e-110
5.27765e-111
1.04252e-111
2.05375e-112
4.03487e-113
7.90568e-114
1.54483e-114
3.01066e-115
5.85176e-116
1.13439e-116
2.19326e-117
4.2294e-118
8.13455e-119
1.56049e-119
2.98581e-120
5.69832e-121
1.08472e-121
2.0596e-122
3.90071e-123
7.36897e-124
1.3886e-124
2.61013e-125
4.894e-126
9.15352e-127
1.70781e-127
3.17852e-128
5.90129e-129
1.09298e-129
2.0194e-130
3.72208e-131
6.84393e-132
1.25541e-132
2.29739e-133
4.19423e-134
7.63915e-135
1.38809e-135
2.51637e-136
4.55115e-137
8.21222e-138
1.47842e-138
2.65544e-139
4.75864e-140
8.50824e-141
1.51779e-141
2.70149e-142
4.79754e-143
8.50085e-144
1.50293e-144
2.65125e-145
4.66663e-146
8.19597e-147
1.43631e-147
2.51157e-148
4.3823e-149
7.6299e-150
1.32556e-150
2.29801e-151
3.97535e-152
6.86239e-153
1.18211e-153
2.03199e-154
3.48558e-155
5.96651e-156
1.01921e-156
1.73741e-157
2.95561e-158
5.01763e-159
8.50081e-160
1.43726e-160
2.42511e-161
4.08364e-162
6.8626e-163
1.15096e-163
1.92646e-164
3.21809e-165
5.36508e-166
8.92681e-167
1.48239e-167
2.45685e-168
4.06394e-169
6.70924e-170
1.1055e-170
1.81806e-171
2.98416e-172
4.88885e-173
7.99401e-174
1.30467e-174
2.12526e-175
3.45549e-176
5.60779e-177
9.08372e-178
1.46868e-178
2.37021e-179
3.81808e-180
6.13911e-181
9.85303e-182
1.57849e-182
2.52421e-183
4.02924e-184
6.42003e-185
1.02111e-185
1.62117e-186
2.56928e-187
4.06465e-188
6.41898e-189
1.01192e-189
1.59243e-190
2.50159e-191
3.92297e-192
6.1413e-193
9.59741e-194
1.49727e-194
2.33185e-195
3.62542e-196
5.62698e-197
8.71878e-198
1.34866e-198
2.08265e-199
3.2107e-200
4.9415e-201
7.59264e-202
1.16468e-202
1.78362e-203
2.72697e-204
4.16242e-205
6.34308e-206
9.65044e-207
1.46585e-207
2.22293e-208
3.36561e-209
5.08748e-210
7.67798e-211
1.15691e-211
1.74044e-212
2.61415e-213
3.92028e-214
5.86975e-215
8.7749e-216
1.30974e-216
1.95188e-217
2.90435e-218
4.3149e-219
6.40067e-220
9.48009e-221
1.40196e-221
2.07012e-222
3.05209e-223
4.49306e-224
6.60436e-225
9.69319e-226
1.42054e-226
2.07869e-227
3.03724e-228
4.43125e-229
6.45553e-230
9.39069e-231
1.36403e-231
1.97842e-232
2.86535e-233
4.14388e-234
5.98422e-235
8.62941e-236
1.2426e-236
1.78672e-237
2.56545e-238
3.67833e-239
5.26651e-240
7.52974e-241
1.07504e-241
1.53271e-242
2.18217e-243
3.10248e-244
4.4048e-245
6.24513e-246
8.84212e-247
1.25018e-247
1.7652e-248
2.48898e-249
3.50473e-250
4.92832e-251
6.92077e-252
9.70562e-253
1.35928e-253
1.90112e-254
2.6554e-255
3.70401e-256
5.15985e-257
7.17839e-258
9.9734e-259
1.38385e-259
1.91762e-260
2.65381e-261
3.66785e-262
5.06277e-263
6.97915e-264
9.6085e-265
1.32114e-265
1.81421e-266
2.48811e-267
3.40799e-268
4.66202e-269
6.36942e-270
8.69116e-271
1.18443e-271
1.61211e-272
2.1916e-273
2.98429e-274
4.69589e-275
)
;

boundaryField
{
    sides
    {
        type            zeroGradient;
    }
    empty
    {
        type            empty;
    }
}


// ************************************************************************* //
