/*--------------------------------*- C++ -*----------------------------------*\
| =========                 |                                                 |
| \\      /  F ield         | OpenFOAM: The Open Source CFD Toolbox           |
|  \\    /   O peration     | Version:  2312                                  |
|   \\  /    A nd           | Website:  www.openfoam.com                      |
|    \\/     M anipulation  |                                                 |
\*---------------------------------------------------------------------------*/
FoamFile
{
    version     2.0;
    format      ascii;
    arch        "LSB;label=32;scalar=64";
    class       volScalarField;
    location    "2.6";
    object      T;
}
// * * * * * * * * * * * * * * * * * * * * * * * * * * * * * * * * * * * * * //

dimensions      [0 0 0 1 0 0 0];

internalField   nonuniform List<scalar> 
1000
(
1.14298e-113
2.41437e-113
6.43972e-113
1.77845e-112
4.92762e-112
1.36409e-111
3.77071e-111
1.04075e-110
2.86817e-110
7.89224e-110
2.16835e-109
5.9483e-109
1.62925e-108
4.45569e-108
1.21666e-107
3.31707e-107
9.02957e-107
2.45417e-106
6.6599e-106
1.80449e-105
4.88161e-105
1.31854e-104
3.55585e-104
9.57444e-104
2.57395e-103
6.90881e-103
1.85149e-102
4.95397e-102
1.32342e-101
3.52984e-101
9.39985e-101
2.49917e-100
6.63406e-100
1.7582e-99
4.65226e-99
1.22903e-98
3.24163e-98
8.53623e-98
2.24424e-97
5.89074e-97
1.54372e-96
4.03892e-96
1.05501e-95
2.75131e-95
7.16335e-95
1.86202e-94
4.83216e-94
1.25195e-93
3.23833e-93
8.3626e-93
2.15598e-92
5.54924e-92
1.42595e-91
3.65808e-91
9.36879e-91
2.39547e-90
6.11472e-90
1.55825e-89
3.96434e-89
1.00688e-88
2.55304e-88
6.46259e-88
1.63314e-87
4.12012e-87
1.03767e-86
2.60902e-86
6.54873e-86
1.64096e-85
4.10489e-85
1.02509e-84
2.55555e-84
6.36005e-84
1.58013e-83
3.91903e-83
9.70323e-83
2.39831e-82
5.9176e-82
1.45758e-81
3.584e-81
8.79728e-81
2.15562e-80
5.27279e-80
1.28751e-79
3.13833e-79
7.63635e-79
1.85486e-78
4.4975e-78
1.0886e-77
2.63024e-77
6.34387e-77
1.52737e-76
3.67082e-76
8.80661e-76
2.10902e-75
5.0417e-75
1.20308e-74
2.86574e-74
6.81394e-74
1.61725e-73
3.83155e-73
9.06123e-73
2.13902e-72
5.04028e-72
1.18551e-71
2.78334e-71
6.52284e-71
1.52586e-70
3.56284e-70
8.30391e-70
1.93184e-69
4.48603e-69
1.0398e-68
2.40569e-68
5.55552e-68
1.28057e-67
2.94631e-67
6.76619e-67
1.55096e-66
3.54851e-66
8.10363e-66
1.84714e-65
4.20246e-65
9.54314e-65
2.16302e-64
4.89339e-64
1.10494e-63
2.49025e-63
5.60174e-63
1.2577e-62
2.81841e-62
6.3038e-62
1.40725e-61
3.13549e-61
6.9728e-61
1.54765e-60
3.42849e-60
7.58045e-60
1.67281e-59
3.68431e-59
8.09886e-59
1.77683e-58
3.89066e-58
8.50261e-58
1.85452e-57
4.03702e-57
8.77077e-57
1.90178e-56
4.11555e-56
8.88869e-56
1.91597e-55
4.12174e-55
8.84931e-55
1.89616e-54
4.05486e-54
8.65387e-54
1.84322e-53
3.91807e-53
8.31185e-53
1.75974e-52
3.71815e-52
7.8402e-52
1.64987e-51
3.46492e-51
7.262e-51
1.51892e-50
3.17053e-50
6.60452e-50
1.37298e-49
2.84837e-49
5.89709e-49
1.21839e-48
2.51213e-48
5.16896e-48
1.06137e-47
2.17485e-47
4.44725e-47
9.07512e-47
1.84803e-46
3.75544e-46
7.6156e-46
1.54113e-45
3.11218e-45
6.27158e-45
1.26118e-44
2.53081e-44
5.06787e-44
1.01268e-43
2.0193e-43
4.01796e-43
7.97787e-43
1.58068e-42
3.12516e-42
6.16556e-42
1.21379e-41
2.38441e-41
4.67396e-41
9.14226e-41
1.78437e-40
3.47519e-40
6.75353e-40
1.30961e-39
2.53401e-39
4.89249e-39
9.4255e-39
1.81188e-38
3.4754e-38
6.65163e-38
1.27027e-37
2.42053e-37
4.60222e-37
8.73103e-37
1.65273e-36
3.1216e-36
5.88287e-36
1.1062e-35
2.07545e-35
3.88528e-35
7.25706e-35
1.35247e-34
2.51489e-34
4.66591e-34
8.63725e-34
1.59528e-33
2.93979e-33
5.40521e-33
9.91576e-33
1.8149e-32
3.31431e-32
6.03871e-32
1.09775e-31
1.991e-31
3.60284e-31
6.50462e-31
1.17166e-30
2.10563e-30
3.77539e-30
6.75367e-30
1.20535e-29
2.14625e-29
3.81276e-29
6.75755e-29
1.19489e-28
2.10792e-28
3.70995e-28
6.51424e-28
1.14115e-27
1.99435e-27
3.47729e-27
6.04863e-27
1.04966e-26
1.81725e-26
3.13873e-26
5.40833e-26
9.29697e-26
1.59436e-25
2.72772e-25
4.65559e-25
7.92709e-25
1.34652e-24
2.28177e-24
3.85735e-24
6.50521e-24
1.09443e-23
1.83683e-23
3.07539e-23
5.13666e-23
8.55873e-23
1.42261e-22
2.35887e-22
3.90182e-22
6.43831e-22
1.05978e-21
1.7402e-21
2.85049e-21
4.65773e-21
7.59213e-21
1.23448e-20
2.00233e-20
3.23978e-20
5.22906e-20
8.41894e-20
1.35212e-19
2.16619e-19
3.46177e-19
5.51849e-19
8.77527e-19
1.39193e-18
2.20236e-18
3.47596e-18
5.47233e-18
8.59371e-18
1.34617e-17
2.10341e-17
3.27835e-17
5.09673e-17
7.90372e-17
1.22257e-16
1.88632e-16
2.90306e-16
4.45652e-16
6.82386e-16
1.04222e-15
1.58775e-15
2.41267e-15
3.65682e-15
5.52839e-15
8.33646e-15
1.25386e-14
1.88107e-14
2.81477e-14
4.20111e-14
6.25411e-14
9.2864e-14
1.37533e-13
2.03163e-13
2.99336e-13
4.39893e-13
6.44776e-13
9.42634e-13
1.37451e-12
1.99905e-12
2.89979e-12
4.19544e-12
6.05417e-12
8.71359e-12
1.25085e-11
1.79091e-11
2.55743e-11
3.64246e-11
5.17423e-11
7.33086e-11
1.03591e-10
1.45997e-10
2.05221e-10
2.8771e-10
4.02292e-10
5.61021e-10
7.80312e-10
1.08245e-09
1.4976e-09
2.0665e-09
2.84394e-09
3.90348e-09
5.34355e-09
7.29547e-09
9.93392e-09
1.34906e-08
1.8272e-08
2.46821e-08
3.3252e-08
4.46782e-08
5.98706e-08
8.00147e-08
1.06651e-07
1.41775e-07
1.87962e-07
2.48529e-07
3.27734e-07
4.31024e-07
5.6535e-07
7.3955e-07
9.64834e-07
1.25537e-06
1.62902e-06
2.1082e-06
2.72102e-06
3.50256e-06
4.49647e-06
5.75692e-06
7.35092e-06
9.36106e-06
1.18889e-05
1.50588e-05
1.90226e-05
2.39654e-05
3.01114e-05
3.7732e-05
4.71543e-05
5.87714e-05
7.30541e-05
9.05643e-05
0.00011197
0.000138065
0.000169786
0.000208235
0.000254708
0.000310719
0.000378035
0.000458705
0.000555106
0.000669974
0.000806458
0.000968161
0.0011592
0.00138424
0.00164859
0.00195823
0.00231985
0.002741
0.00323006
0.00379635
0.00445018
0.00520292
0.00606704
0.00705616
0.00818512
0.00946997
0.010928
0.0125778
0.0144393
0.0165335
0.0188827
0.0215103
0.0244409
0.0276999
0.0313137
0.0353093
0.0397143
0.0445565
0.0498639
0.0556644
0.0619854
0.0688536
0.0762948
0.0843334
0.0929921
0.102292
0.112251
0.122885
0.134207
0.146226
0.158948
0.172376
0.186507
0.201334
0.216847
0.23303
0.249863
0.267322
0.285375
0.303991
0.32313
0.342749
0.362802
0.38324
0.404007
0.42505
0.446308
0.467722
0.48923
0.51077
0.532278
0.553692
0.57495
0.595992
0.61676
0.637197
0.657251
0.67687
0.696008
0.714624
0.732678
0.750136
0.766968
0.783151
0.798663
0.81349
0.82762
0.841046
0.853767
0.865784
0.877103
0.887734
0.897689
0.906984
0.915637
0.923667
0.931099
0.937956
0.944263
0.950046
0.955332
0.960148
0.964521
0.968478
0.972045
0.975248
0.978112
0.980659
0.982911
0.984891
0.986616
0.988104
0.989371
0.990431
0.991295
0.991975
0.992477
0.992809
0.992974
0.992974
0.992809
0.992477
0.991975
0.991295
0.990431
0.989371
0.988104
0.986616
0.984891
0.982911
0.980659
0.978112
0.975248
0.972045
0.968478
0.964521
0.960148
0.955332
0.950046
0.944263
0.937956
0.931099
0.923667
0.915637
0.906984
0.897689
0.887734
0.877103
0.865784
0.853767
0.841046
0.82762
0.81349
0.798663
0.783151
0.766968
0.750136
0.732678
0.714624
0.696008
0.67687
0.657251
0.637197
0.61676
0.595992
0.57495
0.553692
0.532278
0.51077
0.48923
0.467722
0.446308
0.42505
0.404007
0.38324
0.362802
0.342749
0.32313
0.303991
0.285375
0.267322
0.249863
0.23303
0.216847
0.201334
0.186507
0.172376
0.158948
0.146226
0.134207
0.122885
0.112251
0.102292
0.0929921
0.0843334
0.0762948
0.0688536
0.0619854
0.0556644
0.0498639
0.0445565
0.0397143
0.0353093
0.0313137
0.0276999
0.0244409
0.0215103
0.0188827
0.0165335
0.0144393
0.0125778
0.010928
0.00946997
0.00818512
0.00705616
0.00606704
0.00520292
0.00445018
0.00379635
0.00323006
0.002741
0.00231985
0.00195823
0.00164859
0.00138424
0.0011592
0.000968161
0.000806458
0.000669974
0.000555106
0.000458705
0.000378035
0.000310719
0.000254708
0.000208235
0.000169786
0.000138065
0.00011197
9.05643e-05
7.30541e-05
5.87714e-05
4.71543e-05
3.7732e-05
3.01114e-05
2.39654e-05
1.90226e-05
1.50588e-05
1.18889e-05
9.36106e-06
7.35092e-06
5.75692e-06
4.49647e-06
3.50256e-06
2.72102e-06
2.1082e-06
1.62902e-06
1.25537e-06
9.64834e-07
7.3955e-07
5.6535e-07
4.31024e-07
3.27734e-07
2.48529e-07
1.87962e-07
1.41775e-07
1.06651e-07
8.00147e-08
5.98706e-08
4.46782e-08
3.3252e-08
2.46821e-08
1.8272e-08
1.34906e-08
9.93392e-09
7.29547e-09
5.34355e-09
3.90348e-09
2.84394e-09
2.0665e-09
1.4976e-09
1.08245e-09
7.80312e-10
5.61021e-10
4.02292e-10
2.8771e-10
2.05221e-10
1.45997e-10
1.03591e-10
7.33086e-11
5.17423e-11
3.64246e-11
2.55743e-11
1.79091e-11
1.25085e-11
8.71359e-12
6.05417e-12
4.19544e-12
2.89979e-12
1.99905e-12
1.37451e-12
9.42634e-13
6.44776e-13
4.39893e-13
2.99336e-13
2.03163e-13
1.37533e-13
9.2864e-14
6.25411e-14
4.20111e-14
2.81477e-14
1.88107e-14
1.25386e-14
8.33646e-15
5.52839e-15
3.65682e-15
2.41267e-15
1.58775e-15
1.04222e-15
6.82386e-16
4.45652e-16
2.90306e-16
1.88632e-16
1.22257e-16
7.90372e-17
5.09673e-17
3.27835e-17
2.10341e-17
1.34617e-17
8.59371e-18
5.47233e-18
3.47596e-18
2.20236e-18
1.39193e-18
8.77527e-19
5.51849e-19
3.46177e-19
2.16619e-19
1.35212e-19
8.41894e-20
5.22906e-20
3.23978e-20
2.00233e-20
1.23448e-20
7.59213e-21
4.65773e-21
2.85049e-21
1.7402e-21
1.05978e-21
6.43831e-22
3.90182e-22
2.35887e-22
1.42261e-22
8.55873e-23
5.13666e-23
3.07539e-23
1.83683e-23
1.09443e-23
6.50521e-24
3.85735e-24
2.28177e-24
1.34652e-24
7.92709e-25
4.65559e-25
2.72772e-25
1.59436e-25
9.29697e-26
5.40833e-26
3.13873e-26
1.81725e-26
1.04966e-26
6.04863e-27
3.47729e-27
1.99435e-27
1.14115e-27
6.51424e-28
3.70995e-28
2.10792e-28
1.19489e-28
6.75755e-29
3.81276e-29
2.14625e-29
1.20535e-29
6.75367e-30
3.77539e-30
2.10563e-30
1.17166e-30
6.50462e-31
3.60284e-31
1.991e-31
1.09775e-31
6.03871e-32
3.31431e-32
1.8149e-32
9.91576e-33
5.40521e-33
2.93979e-33
1.59528e-33
8.63725e-34
4.66591e-34
2.51489e-34
1.35247e-34
7.25706e-35
3.88528e-35
2.07545e-35
1.1062e-35
5.88287e-36
3.1216e-36
1.65273e-36
8.73103e-37
4.60222e-37
2.42053e-37
1.27027e-37
6.65163e-38
3.4754e-38
1.81188e-38
9.4255e-39
4.89249e-39
2.53401e-39
1.30961e-39
6.75353e-40
3.47519e-40
1.78437e-40
9.14226e-41
4.67396e-41
2.38441e-41
1.21379e-41
6.16556e-42
3.12516e-42
1.58068e-42
7.97787e-43
4.01796e-43
2.0193e-43
1.01268e-43
5.06787e-44
2.53081e-44
1.26118e-44
6.27158e-45
3.11218e-45
1.54113e-45
7.6156e-46
3.75544e-46
1.84803e-46
9.07512e-47
4.44725e-47
2.17485e-47
1.06137e-47
5.16896e-48
2.51213e-48
1.21839e-48
5.89709e-49
2.84837e-49
1.37298e-49
6.60452e-50
3.17053e-50
1.51892e-50
7.262e-51
3.46492e-51
1.64987e-51
7.8402e-52
3.71815e-52
1.75974e-52
8.31185e-53
3.91807e-53
1.84322e-53
8.65387e-54
4.05486e-54
1.89616e-54
8.84931e-55
4.12174e-55
1.91597e-55
8.88869e-56
4.11555e-56
1.90178e-56
8.77077e-57
4.03702e-57
1.85452e-57
8.50261e-58
3.89066e-58
1.77683e-58
8.09886e-59
3.68431e-59
1.67281e-59
7.58045e-60
3.42849e-60
1.54765e-60
6.9728e-61
3.13549e-61
1.40725e-61
6.3038e-62
2.81841e-62
1.2577e-62
5.60174e-63
2.49025e-63
1.10494e-63
4.89339e-64
2.16302e-64
9.54314e-65
4.20246e-65
1.84714e-65
8.10363e-66
3.54851e-66
1.55096e-66
6.76619e-67
2.94631e-67
1.28057e-67
5.55552e-68
2.40569e-68
1.0398e-68
4.48603e-69
1.93184e-69
8.30391e-70
3.56284e-70
1.52586e-70
6.52284e-71
2.78334e-71
1.18551e-71
5.04028e-72
2.13902e-72
9.06123e-73
3.83155e-73
1.61725e-73
6.81394e-74
2.86574e-74
1.20308e-74
5.0417e-75
2.10902e-75
8.80661e-76
3.67082e-76
1.52737e-76
6.34387e-77
2.63024e-77
1.0886e-77
4.4975e-78
1.85486e-78
7.63635e-79
3.13833e-79
1.28751e-79
5.27279e-80
2.15562e-80
8.79728e-81
3.584e-81
1.45758e-81
5.9176e-82
2.39831e-82
9.70323e-83
3.91903e-83
1.58013e-83
6.36005e-84
2.55555e-84
1.02509e-84
4.10489e-85
1.64096e-85
6.54873e-86
2.60902e-86
1.03767e-86
4.12012e-87
1.63314e-87
6.46259e-88
2.55304e-88
1.00688e-88
3.96434e-89
1.55825e-89
6.11472e-90
2.39547e-90
9.36879e-91
3.65808e-91
1.42595e-91
5.54924e-92
2.15598e-92
8.3626e-93
3.23833e-93
1.25195e-93
4.83216e-94
1.86202e-94
7.16335e-95
2.75131e-95
1.05501e-95
4.03892e-96
1.54372e-96
5.89074e-97
2.24424e-97
8.53623e-98
3.24163e-98
1.22903e-98
4.65226e-99
1.7582e-99
6.63406e-100
2.49917e-100
9.39985e-101
3.52984e-101
1.32342e-101
4.95397e-102
1.85149e-102
6.90881e-103
2.57395e-103
9.57444e-104
3.55585e-104
1.31854e-104
4.88161e-105
1.80449e-105
6.6599e-106
2.45417e-106
9.02957e-107
3.31707e-107
1.21666e-107
4.45569e-108
1.62925e-108
5.9483e-109
2.16835e-109
7.89224e-110
2.86817e-110
1.04075e-110
3.77071e-111
1.36409e-111
4.92762e-112
1.77845e-112
6.43972e-113
2.41437e-113
1.14298e-113
)
;

boundaryField
{
    sides
    {
        type            zeroGradient;
    }
    empty
    {
        type            empty;
    }
}


// ************************************************************************* //
