/*--------------------------------*- C++ -*----------------------------------*\
| =========                 |                                                 |
| \\      /  F ield         | OpenFOAM: The Open Source CFD Toolbox           |
|  \\    /   O peration     | Version:  2312                                  |
|   \\  /    A nd           | Website:  www.openfoam.com                      |
|    \\/     M anipulation  |                                                 |
\*---------------------------------------------------------------------------*/
FoamFile
{
    version     2.0;
    format      ascii;
    arch        "LSB;label=32;scalar=64";
    class       volScalarField;
    location    "0.4";
    object      T;
}
// * * * * * * * * * * * * * * * * * * * * * * * * * * * * * * * * * * * * * //

dimensions      [0 0 0 1 0 0 0];

internalField   nonuniform List<scalar> 
1000
(
1.19965e-305
-1.3428e-304
1.29934e-303
-1.2569e-302
1.21388e-301
-1.17044e-300
1.12673e-299
-1.0829e-298
1.03908e-297
-9.95413e-297
9.52024e-296
-9.09037e-295
8.66568e-294
-8.24726e-293
7.83612e-292
-7.43319e-291
7.03931e-290
-6.65525e-289
6.2817e-288
-5.91923e-287
5.56837e-286
-5.22954e-285
4.90309e-284
-4.58929e-283
4.28834e-282
-4.00035e-281
3.72539e-280
-3.46344e-279
3.21443e-278
-2.97824e-277
2.75469e-276
-2.54356e-275
2.34457e-274
-2.15744e-273
1.98181e-272
-1.81734e-271
1.66362e-270
-1.52026e-269
1.38684e-268
-1.26292e-267
1.14806e-266
-1.04181e-265
9.43734e-265
-8.53384e-264
7.7032e-263
-6.9411e-262
6.24329e-261
-5.60564e-260
5.02414e-259
-4.4949e-258
4.0142e-257
-3.57847e-256
3.18429e-255
-2.82841e-254
2.50775e-253
-2.21941e-252
1.96065e-251
-1.7289e-250
1.52175e-249
-1.33697e-248
1.17246e-247
-1.0263e-246
8.96706e-246
-7.82022e-245
6.8074e-244
-5.91471e-243
5.1295e-242
-4.44021e-241
3.83633e-240
-3.30834e-239
2.84765e-238
-2.44647e-237
2.09782e-236
-1.79545e-235
1.53373e-234
-1.30765e-233
1.11277e-232
-9.4511e-232
8.01167e-231
-6.77835e-230
5.7238e-229
-4.82392e-228
4.05762e-227
-3.40638e-226
2.85407e-225
-2.38662e-224
1.99181e-223
-1.65903e-222
1.37912e-221
-1.14416e-220
9.47345e-220
-7.82821e-219
6.45576e-218
-5.31326e-217
4.36416e-216
-3.57737e-215
2.9265e-214
-2.3892e-213
1.94658e-212
-1.58273e-211
1.28426e-210
-1.03994e-209
8.40364e-209
-6.77691e-208
5.45379e-207
-4.37989e-206
3.51014e-205
-2.80724e-204
2.2404e-203
-1.78426e-202
1.41801e-201
-1.12456e-200
8.89951e-200
-7.02793e-199
5.53814e-198
-4.35485e-197
3.41706e-196
-2.67545e-195
2.09029e-194
-1.62959e-193
1.26768e-192
-9.83997e-192
7.62135e-191
-5.89007e-190
4.54209e-189
-3.49491e-188
2.68323e-187
-2.0555e-186
1.57113e-185
-1.19823e-184
9.11798e-184
-6.92282e-183
5.24434e-182
-3.96387e-181
2.98927e-180
-2.24919e-179
1.68849e-178
-1.26467e-177
9.45067e-177
-7.04611e-176
5.24126e-175
-3.8897e-174
2.87998e-173
-2.12742e-172
1.56784e-171
-1.15274e-170
8.45555e-170
-6.18768e-169
4.51738e-168
-3.29014e-167
2.3906e-166
-1.73286e-165
1.25308e-164
-9.03955e-164
6.50532e-163
-4.67023e-162
3.34467e-161
-2.38951e-160
1.70295e-159
-1.21068e-158
8.58594e-158
-6.07397e-157
4.28627e-156
-3.01722e-155
2.1186e-154
-1.48389e-153
1.03672e-152
-7.22485e-152
5.0222e-151
-3.48222e-150
2.40829e-149
-1.66131e-148
1.14308e-147
-7.84485e-147
5.36992e-146
-3.66626e-145
2.49658e-144
-1.69564e-143
1.14863e-142
-7.76034e-142
5.22918e-141
-3.51426e-140
2.35546e-139
-1.57455e-138
1.04972e-137
-6.97936e-137
4.62791e-136
-3.06037e-135
2.01827e-134
-1.32738e-133
8.70601e-133
-5.69436e-132
3.71422e-131
-2.41592e-130
1.56706e-129
-1.01361e-128
6.53789e-128
-4.2051e-127
2.69701e-126
-1.72485e-125
1.09997e-124
-6.9946e-124
4.43499e-123
-2.80392e-122
1.76757e-121
-1.11102e-120
6.96294e-120
-4.35097e-119
2.71079e-118
-1.68391e-117
1.04291e-116
-6.43981e-116
3.96456e-115
-2.43336e-114
1.48902e-113
-9.08392e-113
5.52481e-112
-3.34987e-111
2.02487e-110
-1.22018e-109
7.32985e-109
-4.38945e-108
2.62036e-107
-1.55934e-106
9.25006e-106
-5.46973e-105
3.22402e-104
-1.89424e-103
1.10935e-102
-6.47581e-102
3.76794e-101
-2.18521e-100
1.26314e-99
-7.2774e-99
4.17886e-98
-2.39161e-97
1.36416e-96
-7.75491e-96
4.39357e-95
-2.48074e-94
1.39591e-93
-7.82786e-93
4.37449e-92
-2.43615e-91
1.35196e-90
-7.47657e-90
4.12011e-89
-2.26243e-88
1.23793e-87
-6.74933e-87
3.66658e-86
-1.98468e-85
1.07039e-84
-5.75177e-84
3.0794e-83
-1.64257e-82
8.72906e-82
-4.62155e-81
2.43767e-80
-1.28092e-79
6.70528e-79
-3.49665e-78
1.81643e-77
-9.39952e-77
4.84512e-76
-2.48774e-75
1.27232e-74
-6.48143e-74
3.28864e-73
-1.66197e-72
8.3653e-72
-4.19353e-71
2.09367e-70
-1.04101e-69
5.15479e-69
-2.54193e-68
1.24825e-67
-6.10401e-67
2.97229e-66
-1.44118e-65
6.958e-65
-3.34486e-64
1.60099e-63
-7.62957e-63
3.61995e-62
-1.70995e-61
8.04133e-61
-3.76465e-60
1.75453e-59
-8.13994e-59
3.75918e-58
-1.72808e-57
7.90711e-57
-3.60115e-56
1.63237e-55
-7.36442e-55
3.30661e-54
-1.47753e-53
6.57034e-53
-2.90748e-52
1.28029e-51
-5.60984e-51
2.44581e-50
-1.06098e-49
4.57924e-49
-1.96634e-48
8.40013e-48
-3.56993e-47
1.50925e-46
-6.34702e-46
2.65503e-45
-1.10469e-44
4.57157e-44
-1.88158e-43
7.70177e-43
-3.1351e-42
1.26907e-41
-5.10819e-41
2.04446e-40
-8.13575e-40
3.21885e-39
-1.2661e-38
4.95075e-38
-1.92438e-37
7.43535e-37
-2.85548e-36
1.08993e-35
-4.13459e-35
1.55868e-34
-5.83909e-34
2.17355e-33
-8.03901e-33
2.95404e-32
-1.0784e-31
3.91081e-31
-1.40878e-30
5.0406e-30
-1.79122e-29
6.3214e-29
-2.21534e-28
7.709e-28
-2.66349e-27
9.13613e-27
-3.11098e-26
1.05152e-25
-3.52767e-25
1.17454e-24
-3.88073e-24
1.27229e-23
-4.13854e-23
1.33551e-22
-4.2751e-22
1.35736e-21
-4.27414e-21
1.33462e-20
-4.13212e-20
1.26836e-19
-3.85934e-19
1.16394e-18
-3.47888e-18
1.03034e-17
-3.0234e-17
8.78863e-17
-2.53043e-16
7.2152e-16
-2.03712e-15
5.69411e-15
-1.57545e-14
4.31397e-14
-1.16886e-13
3.13315e-13
-8.30708e-13
2.17808e-12
-5.64632e-12
1.44687e-11
-3.66406e-11
9.16775e-11
-2.26579e-10
5.52993e-10
-1.33242e-09
3.16855e-09
-7.43435e-09
1.72049e-08
-3.92588e-08
8.82972e-08
-1.95666e-07
4.27041e-07
-9.17536e-07
1.93991e-06
-4.03396e-06
8.24612e-06
-1.65613e-05
3.26592e-05
-6.31977e-05
0.000119916
-0.000222944
0.000405786
-0.000722396
0.00125657
-0.0021332
0.00352982
-0.00568475
0.00889566
-0.0134991
0.0198195
-0.0280761
0.0382441
-0.0498788
0.0619395
-0.0726794
0.0797004
-0.0802755
0.0720031
-0.0537512
0.0266702
0.00513191
-0.0347768
0.0540773
-0.0562649
0.0392606
-0.00804244
-0.0256105
0.0470184
-0.0453908
0.0205044
0.0150164
-0.0408848
0.0407289
-0.0137624
-0.022179
0.0410897
-0.0279181
-0.00760809
0.0360177
-0.0319312
-0.0017369
0.033214
-0.030705
-0.00407034
0.034011
-0.0249966
-0.0134607
0.0351988
-0.0121463
-0.0268389
0.0292618
0.00956178
-0.0346277
0.00768067
0.0315043
-0.0205121
-0.0247436
0.0284538
0.0181251
-0.0328792
-0.0138717
0.0353692
0.0131884
-0.0367689
-0.0168935
0.0365999
0.0255781
-0.0324897
-0.0387849
0.019799
0.0525569
0.00709295
-0.0553323
-0.0481898
0.026136
0.0818531
0.0504511
-0.0475695
-0.124821
-0.101969
0.0393925
0.258503
0.492139
0.690424
0.831784
0.918622
0.965146
0.986956
0.995854
0.998956
0.99984
1.00002
1.00003
1.00001
1.00001
0.999992
1.00002
0.999967
1.00006
0.99988
1.00022
0.999594
1.00072
0.998743
1.00213
0.99647
1.00568
0.991104
1.0135
0.980181
1.02808
0.961756
1.04988
0.938061
1.07268
0.9203
1.08028
0.927997
1.05375
0.97333
0.994868
1.03478
0.945923
1.05626
0.960739
1.00804
1.02561
0.952982
1.04539
0.979496
0.984984
1.04088
0.959271
1.01376
1.02218
0.95891
1.02792
1.00761
0.963982
1.03193
1.00174
0.966786
1.03071
1.00407
0.965989
1.025
1.01346
0.964801
1.01215
1.02684
0.970738
0.990438
1.03463
0.992319
0.968496
1.02051
1.02474
0.971546
0.981875
1.03288
1.01387
0.964631
0.986812
1.03677
1.01689
0.9634
0.974422
1.03249
1.03878
0.980201
0.947443
0.992907
1.05533
1.04819
0.973864
0.918147
0.949549
1.04757
1.12482
1.10197
0.960608
0.741497
0.507861
0.309576
0.168216
0.0813779
0.0348537
0.013044
0.00414623
0.00104365
0.000160475
-1.78305e-05
-2.54411e-05
-1.15151e-05
-3.45447e-06
-6.64413e-07
-1.94717e-08
4.556e-08
2.17303e-08
5.86287e-09
8.39961e-10
-8.07839e-11
-9.12004e-11
-2.9934e-11
-5.2988e-12
-2.6799e-14
3.2484e-13
1.16965e-13
2.11275e-14
3.28047e-16
-1.10211e-15
-3.78988e-16
-6.12158e-17
1.05006e-18
3.54027e-18
1.0216e-18
1.26549e-19
-1.3335e-20
-9.97906e-21
-2.19911e-21
-1.48966e-22
5.96934e-23
2.28537e-23
3.45834e-24
-8.2667e-26
-1.68769e-25
-3.9591e-26
-3.00639e-27
8.58077e-28
3.29722e-28
4.59374e-29
-1.78261e-30
-2.16411e-30
-4.35561e-31
-2.00953e-32
1.12555e-32
3.2344e-33
3.17869e-34
-4.29117e-35
-2.01321e-35
-2.8442e-36
7.02786e-38
1.07959e-37
1.99746e-38
6.24921e-40
-5.03193e-40
-1.19809e-40
-8.21221e-42
2.02397e-42
6.36851e-43
6.21445e-44
-6.78829e-45
-3.06256e-45
-3.75953e-46
1.68495e-47
1.35034e-47
1.97576e-48
-1.25078e-50
-5.51216e-50
-9.34807e-51
-1.8467e-52
2.09917e-52
4.06088e-53
1.5746e-54
-7.50746e-55
-1.63997e-55
-8.72993e-57
2.53703e-57
6.2107e-58
4.00165e-59
-8.15093e-60
-2.21985e-60
-1.62269e-61
2.50557e-62
7.52539e-63
5.99458e-64
-7.41896e-65
-2.42902e-65
-2.04933e-66
2.13065e-67
7.48749e-68
6.54428e-69
-5.97387e-70
-2.2093e-70
-1.96383e-71
1.64407e-72
6.25081e-73
5.55957e-74
-4.45634e-75
-1.69791e-75
-1.48856e-76
1.19067e-77
4.43136e-78
3.77497e-79
-3.13068e-80
-1.11169e-80
-9.0727e-82
8.07216e-83
2.68112e-83
2.06596e-84
-2.03195e-85
-6.21554e-86
-4.45196e-87
4.97101e-88
1.38464e-88
9.05738e-90
-1.17717e-90
-2.96268e-91
-1.73272e-92
2.68955e-93
6.085e-94
3.09602e-95
-5.91394e-96
-1.1988e-96
-5.10701e-98
1.24924e-98
2.26341e-99
7.60715e-101
-2.53181e-101
-4.09133e-102
-9.74121e-104
4.91874e-104
7.0714e-105
9.21776e-107
-9.15485e-107
-1.16682e-107
-1.19071e-110
1.63169e-109
1.83433e-110
-2.32066e-112
-2.78397e-112
-2.7399e-113
7.84614e-115
4.54566e-115
3.8734e-116
-1.85951e-117
-7.1004e-118
-5.15272e-119
3.74163e-120
1.06055e-120
6.39088e-122
-6.77012e-123
-1.51389e-123
-7.27202e-125
1.12953e-125
2.06352e-126
7.35006e-128
-1.76069e-128
-2.68279e-129
-6.08298e-131
2.58413e-131
3.32139e-132
2.9099e-134
-3.58836e-134
-3.90652e-135
2.63331e-137
4.72935e-137
4.35002e-138
-1.0779e-139
-5.92829e-140
-4.56147e-141
2.14055e-142
7.07681e-143
4.46548e-144
-3.39653e-145
-8.0504e-146
-4.01943e-147
4.74959e-148
8.72806e-149
3.227e-150
-6.07267e-151
-9.01444e-152
-2.14337e-153
7.22693e-154
8.85908e-155
8.69742e-157
-8.0853e-157
-8.26778e-158
4.62294e-160
8.55506e-160
7.3029e-161
-1.71323e-162
-8.594e-163
-6.07228e-164
2.75955e-165
8.21628e-166
4.70961e-167
-3.51351e-168
-7.48705e-169
-3.3511e-170
3.93443e-171
6.50763e-172
2.1139e-173
-4.02976e-174
-5.39562e-175
-1.08099e-176
3.84688e-177
4.26468e-178
2.94595e-180
-3.45882e-180
-3.20856e-181
2.41688e-183
2.94799e-183
2.29168e-184
-5.54445e-186
-2.39175e-186
-1.54693e-187
6.88726e-189
1.85231e-189
9.79454e-191
-6.96281e-192
-1.37196e-192
-5.7393e-194
6.26102e-195
9.73045e-196
3.031e-197
-5.18403e-198
-6.61291e-199
-1.35434e-200
4.0211e-201
4.3074e-202
4.08243e-204
-2.95111e-204
-2.68832e-205
6.0462e-208
2.06214e-207
1.60629e-208
-2.44046e-210
-1.37784e-210
-9.17375e-212
2.75556e-213
8.82986e-214
4.99458e-215
-2.38791e-216
-5.43985e-217
-2.58106e-218
1.81166e-219
3.22756e-220
1.25697e-221
-1.2593e-222
-1.8469e-223
-5.69661e-225
8.19321e-226
1.0205e-226
2.34459e-228
-5.04922e-229
-5.45043e-230
-8.28164e-232
2.96939e-232
2.81635e-233
2.07767e-235
-1.67483e-235
-1.4091e-236
8.3576e-240
9.09325e-239
6.83172e-240
-6.03056e-242
-4.76567e-242
-3.21209e-243
5.59984e-245
2.41632e-245
1.46574e-246
-3.88687e-248
-1.18745e-248
-6.49693e-250
2.35074e-251
5.66504e-252
2.8e-253
-1.30249e-254
-2.62742e-255
-1.17462e-256
6.765e-258
1.18618e-258
4.80305e-260
-3.33519e-261
-5.21884e-262
-1.91752e-263
1.57271e-264
2.24013e-265
7.48963e-267
-7.12905e-268
-9.39047e-269
-2.86929e-270
3.11738e-271
3.8479e-272
1.08142e-273
-1.31828e-274
-1.5426e-275
-4.02378e-277
5.40111e-278
6.055e-279
1.48367e-280
-2.1468e-281
-2.32862e-282
-5.44187e-284
8.28586e-285
8.77908e-286
1.99206e-287
-3.10724e-288
-3.24604e-289
-7.29484e-291
1.13244e-291
1.17745e-292
2.67482e-294
-4.01082e-295
-4.19052e-296
-9.81446e-298
1.37987e-298
1.46326e-299
3.59623e-301
-4.60748e-302
-5.01198e-303
-1.31195e-304
1.49107e-305
1.6833e-306
4.74832e-308
-4.66687e-309
-5.54021e-310
-1.69887e-311
1.40822e-312
1.7855e-313
5.98872e-315
-4.07706e-316
-5.62891e-317
-2.07391e-318
1.1241e-319
1.73269e-320
7.01573e-322
-2.96439e-323
0
0
0
0
0
0
0
0
0
0
0
0
0
0
0
0
0
0
0
0
0
0
0
0
0
0
0
0
0
0
0
0
0
0
0
0
0
0
0
0
0
0
0
0
0
0
0
0
0
0
0
0
0
0
0
0
0
0
0
0
0
0
0
0
0
0
0
0
0
0
0
0
0
0
0
0
)
;

boundaryField
{
    sides
    {
        type            zeroGradient;
    }
    empty
    {
        type            empty;
    }
}


// ************************************************************************* //
