/*--------------------------------*- C++ -*----------------------------------*\
| =========                 |                                                 |
| \\      /  F ield         | OpenFOAM: The Open Source CFD Toolbox           |
|  \\    /   O peration     | Version:  2312                                  |
|   \\  /    A nd           | Website:  www.openfoam.com                      |
|    \\/     M anipulation  |                                                 |
\*---------------------------------------------------------------------------*/
FoamFile
{
    version     2.0;
    format      ascii;
    arch        "LSB;label=32;scalar=64";
    class       volScalarField;
    location    "2.8";
    object      T;
}
// * * * * * * * * * * * * * * * * * * * * * * * * * * * * * * * * * * * * * //

dimensions      [0 0 0 1 0 0 0];

internalField   nonuniform List<scalar> 
1000
(
0
0
0
0
0
0
0
0
0
0
0
0
0
0
0
0
0
0
0
0
0
0
0
0
0
0
0
0
0
0
0
0
0
0
0
0
0
0
0
0
0
0
0
0
0
0
0
0
0
0
0
0
0
0
0
0
0
0
0
0
0
0
0
0
0
0
0
0
0
0
0
0
0
0
0
0
0
0
0
0
0
0
0
0
0
0
0
0
0
0
0
0
0
0
0
0
0
0
0
0
0
0
0
0
0
0
0
0
0
0
0
0
0
0
0
0
0
0
0
0
0
0
0
0
0
0
0
0
0
0
0
0
0
0
0
0
0
0
0
0
0
0
0
0
0
0
0
0
0
0
0
0
0
0
0
0
0
0
0
0
0
0
0
0
0
0
0
0
0
0
0
0
0
-4.94066e-324
2.96439e-323
-4.94066e-324
2.96439e-323
-4.94066e-324
2.96439e-323
-4.94066e-324
2.96439e-323
-4.94066e-324
2.96439e-323
-4.94066e-324
2.96439e-323
-4.94066e-324
2.96439e-323
-4.94066e-324
2.96439e-323
-4.94066e-324
2.96439e-323
-4.94066e-324
2.96439e-323
-4.94066e-324
2.96439e-323
-4.94066e-324
2.96439e-323
-4.94066e-324
2.96439e-323
-4.94066e-324
2.96439e-323
-4.94066e-324
2.96439e-323
-4.94066e-324
2.96439e-323
-4.94066e-324
2.96439e-323
-4.94066e-324
2.96439e-323
-4.94066e-324
2.96439e-323
-4.94066e-324
2.96439e-323
-4.94066e-324
2.96439e-323
-4.94066e-324
2.96439e-323
-4.94066e-324
2.96439e-323
-4.94066e-324
2.96439e-323
-4.94066e-324
2.96439e-323
-4.94066e-324
2.96439e-323
-4.94066e-324
2.96439e-323
-4.94066e-324
2.96439e-323
-4.94066e-324
2.96439e-323
-4.94066e-324
2.96439e-323
-4.94066e-324
2.96439e-323
-4.94066e-324
2.96439e-323
-4.94066e-324
2.96439e-323
-4.94066e-324
2.96439e-323
-4.94066e-324
2.96439e-323
-4.94066e-324
2.96439e-323
-4.94066e-324
2.96439e-323
-4.94066e-324
2.96439e-323
-4.94066e-324
2.96439e-323
-4.94066e-324
5.38532e-322
-5.07899e-321
8.84723e-320
-8.42836e-319
1.45346e-317
-1.41915e-316
2.35652e-315
-2.43985e-314
3.74591e-313
-4.27837e-312
5.85506e-311
-7.54069e-310
9.11712e-309
-1.31565e-307
1.43313e-306
-2.25898e-305
2.28817e-304
-3.82083e-303
3.71181e-302
-6.38752e-301
6.09469e-300
-1.06058e-298
1.00637e-297
-1.7574e-296
1.66344e-295
-2.91058e-294
2.75362e-293
-4.80961e-292
4.58215e-291
-7.8993e-290
7.71776e-289
-1.28057e-287
1.32677e-286
-2.03593e-285
2.32582e-284
-3.1831e-283
4.09845e-282
-4.95711e-281
7.15065e-280
-7.79175e-279
1.22789e-277
-1.24389e-276
2.07708e-275
-2.01748e-274
3.47288e-273
-3.31187e-272
5.76755e-271
-5.467e-270
9.55875e-269
-9.03498e-268
1.58316e-266
-1.49551e-265
2.61719e-264
-2.48377e-263
4.31369e-262
-4.14559e-261
7.0747e-260
-6.97846e-259
1.1509e-257
-1.18687e-256
1.85811e-255
-2.02739e-254
2.99698e-253
-3.44635e-252
4.85997e-251
-5.8139e-250
7.9176e-249
-9.78033e-248
1.28921e-246
-1.64783e-245
2.09537e-244
-2.77417e-243
3.41684e-242
-4.63922e-241
5.62151e-240
-7.68702e-239
9.3284e-238
-1.2664e-236
1.55258e-235
-2.08595e-234
2.57967e-233
-3.44331e-232
4.27833e-231
-5.68894e-230
7.09419e-229
-9.39968e-228
1.17565e-226
-1.5551e-225
1.94494e-224
-2.57575e-223
3.2191e-222
-4.25414e-221
5.35734e-220
-6.9762e-219
8.98165e-218
-1.13732e-216
1.5092e-215
-1.85672e-214
2.52218e-213
-3.0559e-212
4.17838e-211
-5.07141e-210
6.88368e-209
-8.44003e-208
1.13401e-206
-1.40203e-205
1.87238e-204
-2.32473e-203
3.09387e-202
-3.85489e-201
5.111e-200
-6.39035e-199
8.45238e-198
-1.05765e-196
1.39944e-195
-1.75104e-194
2.3111e-193
-2.91383e-192
3.7909e-191
-4.88344e-190
6.18142e-189
-8.20725e-188
1.00825e-186
-1.37397e-185
1.65454e-184
-2.28463e-183
2.73324e-182
-3.78012e-181
4.5312e-180
-6.24353e-179
7.51687e-178
-1.03129e-176
1.24648e-175
-1.70426e-174
2.06581e-173
-2.81806e-172
3.42115e-171
-4.66321e-170
5.66224e-169
-7.71702e-168
9.38052e-167
-1.274e-165
1.56095e-164
-2.09087e-163
2.61568e-162
-3.40917e-161
4.40247e-160
-5.54869e-159
7.39469e-158
-9.07153e-157
1.23419e-155
-1.49328e-154
2.04769e-153
-2.47035e-152
3.38601e-151
-4.09664e-150
5.59025e-149
-2.70151e-148
-1.82275e-147
3.57427e-146
-8.38431e-146
-1.41704e-144
2.37918e-143
2.21202e-143
-1.10958e-141
3.06851e-141
4.88717e-140
-5.36853e-139
-1.62392e-138
3.99052e-137
4.14267e-137
-1.97505e-135
-6.51992e-136
9.55296e-134
-4.17772e-134
-4.80086e-132
4.0389e-132
2.36941e-130
-2.35597e-130
-1.1957e-128
8.39472e-129
6.02868e-127
-1.39303e-127
-3.30702e-125
-1.6593e-125
1.61211e-123
1.61296e-123
-7.2035e-122
-1.60718e-121
2.1074e-120
9.98236e-120
-4.9717e-119
-7.76141e-118
1.86486e-118
3.82015e-116
3.75364e-116
-1.26943e-114
-5.29212e-114
1.90321e-113
3.61112e-112
1.35876e-112
-1.50708e-110
-3.75608e-110
2.23209e-109
3.15948e-108
1.16048e-108
-1.19724e-106
-4.37821e-106
1.04036e-105
3.44789e-104
4.66602e-104
-4.99176e-103
-4.58515e-102
-8.81085e-103
1.61896e-100
9.24098e-100
-2.26625e-100
-3.66943e-98
-1.31206e-97
1.65827e-97
7.31743e-96
2.07903e-95
-3.57802e-95
-1.28712e-93
-4.14297e-93
4.24248e-93
1.95578e-91
7.93307e-91
-2.33371e-91
-2.56463e-89
-1.6815e-88
-9.50826e-89
2.70872e-87
3.23902e-86
3.98946e-86
-2.14863e-85
-4.19217e-84
-1.51441e-83
6.49151e-85
3.39456e-82
3.23079e-81
3.66256e-81
-1.89686e-80
-3.42707e-79
-1.54108e-78
-7.77047e-79
1.89794e-77
2.49582e-76
7.71524e-76
6.71153e-77
-1.27405e-74
-1.47541e-73
-3.97759e-73
8.20263e-75
6.68557e-72
7.19533e-71
1.94803e-70
1.89097e-71
-2.80332e-69
-3.06105e-68
-2.75956e-67
-2.35381e-66
-1.9524e-65
-1.58643e-64
-1.27171e-63
-9.78465e-63
-3.18778e-62
-2.13138e-62
1.96412e-61
2.14564e-60
1.70583e-59
1.25291e-58
8.89939e-58
6.18607e-57
4.22252e-56
2.83341e-55
1.86988e-54
1.2139e-53
7.75342e-53
4.87307e-52
3.01418e-51
1.83506e-50
1.09976e-49
6.48875e-49
3.76959e-48
2.15647e-47
1.21494e-46
6.74181e-46
3.68511e-45
1.98436e-44
1.05275e-43
5.50313e-43
2.83471e-42
1.439e-41
7.19951e-41
3.55034e-40
1.72582e-39
8.27017e-39
3.90711e-38
1.81992e-37
8.35858e-37
3.78552e-36
1.69067e-35
7.44661e-35
3.23483e-34
1.386e-33
5.85751e-33
2.4419e-32
1.00422e-31
4.07413e-31
1.63068e-30
6.43944e-30
2.50894e-29
9.64528e-29
3.65878e-28
1.36953e-27
5.05865e-27
1.84391e-26
6.63285e-26
2.35466e-25
8.2496e-25
2.85252e-24
9.73468e-24
3.27886e-23
1.09003e-22
3.57667e-22
1.15837e-21
3.70296e-21
1.1684e-20
3.63893e-20
1.11867e-19
3.39453e-19
1.01673e-18
3.00593e-18
8.77205e-18
2.52679e-17
7.18423e-17
2.01619e-16
5.58495e-16
1.52699e-15
4.12076e-15
1.09758e-14
2.88536e-14
7.48622e-14
1.91696e-13
4.84439e-13
1.20817e-12
2.97348e-12
7.22163e-12
1.7307e-11
4.09268e-11
9.54935e-11
2.19836e-10
4.993e-10
1.11876e-09
2.47289e-09
5.39179e-09
1.15957e-08
2.45961e-08
5.14528e-08
1.06143e-07
2.15914e-07
4.33051e-07
8.56301e-07
1.66917e-06
3.20717e-06
6.07353e-06
1.13347e-05
2.0844e-05
3.77658e-05
6.74073e-05
0.000118508
0.000205191
0.000349842
0.000587252
0.000970378
0.00157815
0.00252561
0.0039766
0.00615888
0.00938089
0.014049
0.0206828
0.0299251
0.0425421
0.0594093
0.0814767
0.10971
0.145007
0.188085
0.239354
0.298786
0.365796
0.43916
0.516995
0.596826
0.675742
0.750636
0.818524
0.876871
0.923894
0.958759
0.981683
0.994081
0.998857
0.9999
0.999997
1
1
1
1
1
1
1
1
1
1
1
1
1
1
1
1
1
1
1
1
1
1
1
1
1
1
1
1
1
1
1
1
1
1
1
1
1
1
1
1
1
1
1
1
1
1
1
1
1
1
1
1
1
1
1
1
0.999999
0.999998
0.999997
0.999994
0.999989
0.999979
0.999962
0.999932
0.999881
0.999795
0.99965
0.999412
0.999028
0.99842
0.997472
0.996019
0.993835
0.990611
0.985939
0.979301
0.970052
0.957428
0.940552
0.918474
0.890228
0.854918
0.811827
0.760545
0.7011
0.63408
0.56071
0.482873
0.403043
0.324135
0.249253
0.181381
0.123052
0.0760477
0.0412017
0.0182945
0.00590928
0.0011405
9.95149e-05
2.83634e-06
1.92609e-08
2.38288e-11
4.3561e-15
3.66256e-19
3.09382e-23
2.63569e-27
2.26542e-31
1.96057e-35
1.70344e-39
1.4819e-43
1.28839e-47
1.11838e-51
9.69046e-56
8.38326e-60
7.24429e-64
6.25624e-68
5.40194e-72
4.66481e-76
4.02932e-80
3.48146e-84
3.00887e-88
2.60091e-92
2.24848e-96
1.94386e-100
1.68046e-104
1.45268e-108
1.25571e-112
1.08539e-116
9.38133e-121
8.10839e-125
7.0081e-129
6.05711e-133
5.23518e-137
4.5248e-141
3.91082e-145
3.38016e-149
2.9215e-153
2.52506e-157
2.18241e-161
1.88624e-165
1.63025e-169
1.409e-173
1.21777e-177
1.05248e-181
9.09626e-186
7.86157e-190
6.79443e-194
5.87212e-198
5.07499e-202
4.38604e-206
3.7906e-210
3.27598e-214
2.83121e-218
2.44682e-222
2.1146e-226
1.82748e-230
1.57934e-234
1.36489e-238
1.17954e-242
1.01937e-246
8.80937e-251
7.61302e-255
6.57911e-259
5.68559e-263
4.9134e-267
4.24607e-271
3.66935e-275
3.17096e-279
2.74025e-283
2.36804e-287
2.04637e-291
1.7684e-295
1.52817e-299
1.32058e-303
1.14118e-307
9.86155e-312
8.52184e-316
7.36158e-320
0
0
0
0
0
0
0
0
0
0
0
0
0
0
0
0
0
0
0
0
0
0
0
0
0
0
0
0
0
0
0
0
0
0
0
0
0
0
0
0
0
0
0
0
0
0
0
0
0
0
0
0
0
0
0
0
0
0
0
0
0
0
0
0
0
0
0
0
0
0
0
0
0
0
0
0
0
0
0
0
0
0
0
0
0
0
0
0
0
0
0
0
0
0
0
0
0
0
0
0
0
0
0
0
0
0
0
0
0
0
0
0
0
0
0
0
0
0
0
0
0
0
0
0
0
0
0
0
0
0
0
0
0
0
0
0
0
0
0
0
0
0
0
0
0
0
0
0
0
0
0
0
0
0
0
0
0
0
0
0
0
0
0
)
;

boundaryField
{
    sides
    {
        type            zeroGradient;
    }
    empty
    {
        type            empty;
    }
}


// ************************************************************************* //
