/*--------------------------------*- C++ -*----------------------------------*\
| =========                 |                                                 |
| \\      /  F ield         | OpenFOAM: The Open Source CFD Toolbox           |
|  \\    /   O peration     | Version:  2312                                  |
|   \\  /    A nd           | Website:  www.openfoam.com                      |
|    \\/     M anipulation  |                                                 |
\*---------------------------------------------------------------------------*/
FoamFile
{
    version     2.0;
    format      ascii;
    arch        "LSB;label=32;scalar=64";
    class       volScalarField;
    location    "4.5";
    object      T;
}
// * * * * * * * * * * * * * * * * * * * * * * * * * * * * * * * * * * * * * //

dimensions      [0 0 0 1 0 0 0];

internalField   nonuniform List<scalar> 
1000
(
2.17326e-06
2.17646e-06
2.18528e-06
2.19974e-06
2.21986e-06
2.2457e-06
2.2773e-06
2.31473e-06
2.35807e-06
2.40742e-06
2.46288e-06
2.52457e-06
2.59262e-06
2.66718e-06
2.74839e-06
2.83644e-06
2.93151e-06
3.03381e-06
3.14354e-06
3.26093e-06
3.38623e-06
3.51971e-06
3.66164e-06
3.81231e-06
3.97204e-06
4.14115e-06
4.31999e-06
4.50893e-06
4.70835e-06
4.91866e-06
5.14029e-06
5.37367e-06
5.61928e-06
5.87761e-06
6.14918e-06
6.43452e-06
6.73419e-06
7.0488e-06
7.37894e-06
7.72527e-06
8.08846e-06
8.46921e-06
8.86825e-06
9.28635e-06
9.7243e-06
1.01829e-05
1.06631e-05
1.11658e-05
1.16918e-05
1.22422e-05
1.2818e-05
1.34202e-05
1.405e-05
1.47085e-05
1.53969e-05
1.61165e-05
1.68685e-05
1.76542e-05
1.84751e-05
1.93327e-05
2.02284e-05
2.11637e-05
2.21404e-05
2.31601e-05
2.42246e-05
2.53357e-05
2.64953e-05
2.77053e-05
2.89678e-05
3.02849e-05
3.16587e-05
3.30917e-05
3.45861e-05
3.61443e-05
3.7769e-05
3.94627e-05
4.12281e-05
4.30682e-05
4.49858e-05
4.69839e-05
4.90657e-05
5.12345e-05
5.34936e-05
5.58465e-05
5.82969e-05
6.08484e-05
6.3505e-05
6.62707e-05
6.91495e-05
7.21459e-05
7.52642e-05
7.85091e-05
8.18852e-05
8.53976e-05
8.90513e-05
9.28515e-05
9.68037e-05
0.000100914
0.000105187
0.000109629
0.000114248
0.000119048
0.000124037
0.000129221
0.000134608
0.000140204
0.000146018
0.000152057
0.000158329
0.000164842
0.000171605
0.000178626
0.000185916
0.000193482
0.000201335
0.000209485
0.000217941
0.000226715
0.000235818
0.00024526
0.000255053
0.000265209
0.00027574
0.00028666
0.00029798
0.000309715
0.000321878
0.000334484
0.000347546
0.000361081
0.000375103
0.000389628
0.000404673
0.000420256
0.000436392
0.000453099
0.000470398
0.000488304
0.00050684
0.000526023
0.000545875
0.000566417
0.00058767
0.000609656
0.000632398
0.000655919
0.000680244
0.000705396
0.000731402
0.000758286
0.000786076
0.000814799
0.000844483
0.000875156
0.000906847
0.000939588
0.000973408
0.00100834
0.00104442
0.00108167
0.00112013
0.00115984
0.00120083
0.00124314
0.00128681
0.00133187
0.00137836
0.00142632
0.0014758
0.00152684
0.00157947
0.00163375
0.00168972
0.00174742
0.0018069
0.00186821
0.00193139
0.00199651
0.0020636
0.00213273
0.00220394
0.00227729
0.00235283
0.00243062
0.00251073
0.0025932
0.0026781
0.00276549
0.00285544
0.002948
0.00304324
0.00314123
0.00324204
0.00334573
0.00345238
0.00356206
0.00367483
0.00379078
0.00390998
0.0040325
0.00415843
0.00428785
0.00442083
0.00455746
0.00469782
0.004842
0.00499008
0.00514215
0.0052983
0.00545863
0.00562322
0.00579217
0.00596557
0.00614353
0.00632613
0.00651348
0.00670568
0.00690283
0.00710504
0.0073124
0.00752504
0.00774305
0.00796655
0.00819565
0.00843045
0.00867108
0.00891765
0.00917028
0.00942908
0.00969417
0.00996568
0.0102437
0.0105284
0.0108199
0.0111184
0.0114238
0.0117364
0.0120564
0.0123837
0.0127187
0.0130613
0.0134118
0.0137702
0.0141368
0.0145116
0.0148947
0.0152865
0.0156869
0.0160961
0.0165143
0.0169415
0.0173781
0.017824
0.0182795
0.0187446
0.0192197
0.0197047
0.0201998
0.0207053
0.0212212
0.0217477
0.0222849
0.0228331
0.0233923
0.0239628
0.0245446
0.0251379
0.0257429
0.0263597
0.0269886
0.0276295
0.0282828
0.0289485
0.0296268
0.0303179
0.0310219
0.031739
0.0324693
0.0332129
0.0339701
0.0347409
0.0355256
0.0363242
0.037137
0.037964
0.0388054
0.0396614
0.0405321
0.0414176
0.0423181
0.0432337
0.0441646
0.0451108
0.0460726
0.04705
0.0480432
0.0490524
0.0500775
0.0511188
0.0521764
0.0532504
0.0543409
0.055448
0.0565719
0.0577126
0.0588702
0.0600448
0.0612366
0.0624457
0.063672
0.0649158
0.066177
0.0674558
0.0687522
0.0700664
0.0713983
0.0727481
0.0741158
0.0755014
0.076905
0.0783267
0.0797664
0.0812243
0.0827004
0.0841946
0.085707
0.0872376
0.0887865
0.0903535
0.0919388
0.0935423
0.095164
0.0968039
0.098462
0.100138
0.101832
0.103545
0.105275
0.107023
0.10879
0.110574
0.112375
0.114195
0.116032
0.117886
0.119758
0.121647
0.123553
0.125477
0.127417
0.129374
0.131347
0.133337
0.135343
0.137366
0.139404
0.141458
0.143528
0.145613
0.147714
0.149829
0.151959
0.154104
0.156263
0.158436
0.160623
0.162823
0.165037
0.167264
0.169503
0.171755
0.174019
0.176295
0.178582
0.180881
0.18319
0.185511
0.187841
0.190181
0.192531
0.19489
0.197257
0.199634
0.202018
0.204409
0.206809
0.209214
0.211627
0.214045
0.216469
0.218898
0.221332
0.22377
0.226211
0.228657
0.231105
0.233555
0.236008
0.238462
0.240917
0.243372
0.245828
0.248283
0.250737
0.253189
0.25564
0.258088
0.260533
0.262974
0.265411
0.267844
0.270271
0.272693
0.275108
0.277517
0.279918
0.282312
0.284697
0.287073
0.289439
0.291795
0.294141
0.296475
0.298797
0.301107
0.303404
0.305688
0.307957
0.310212
0.312452
0.314676
0.316883
0.319074
0.321247
0.323402
0.325539
0.327657
0.329754
0.331832
0.333889
0.335924
0.337938
0.339929
0.341897
0.343842
0.345763
0.347659
0.34953
0.351376
0.353196
0.354989
0.356755
0.358493
0.360204
0.361886
0.363538
0.365162
0.366755
0.368319
0.369851
0.371352
0.372821
0.374259
0.375664
0.377035
0.378374
0.379679
0.380949
0.382186
0.383387
0.384554
0.385684
0.386779
0.387838
0.38886
0.389846
0.390794
0.391705
0.392579
0.393414
0.394212
0.394971
0.395691
0.396372
0.397015
0.397618
0.398182
0.398707
0.399191
0.399636
0.400041
0.400406
0.40073
0.401014
0.401258
0.401461
0.401623
0.401745
0.401827
0.401867
0.401867
0.401827
0.401745
0.401623
0.401461
0.401258
0.401014
0.40073
0.400406
0.400041
0.399636
0.399191
0.398707
0.398182
0.397618
0.397015
0.396372
0.395691
0.394971
0.394212
0.393414
0.392579
0.391705
0.390794
0.389846
0.38886
0.387838
0.386779
0.385684
0.384554
0.383387
0.382186
0.380949
0.379679
0.378374
0.377035
0.375664
0.374259
0.372821
0.371352
0.369851
0.368319
0.366755
0.365162
0.363538
0.361886
0.360204
0.358493
0.356755
0.354989
0.353196
0.351376
0.34953
0.347659
0.345763
0.343842
0.341897
0.339929
0.337938
0.335924
0.333889
0.331832
0.329754
0.327657
0.325539
0.323402
0.321247
0.319074
0.316883
0.314676
0.312452
0.310212
0.307957
0.305688
0.303404
0.301107
0.298797
0.296475
0.294141
0.291795
0.289439
0.287073
0.284697
0.282312
0.279918
0.277517
0.275108
0.272693
0.270271
0.267844
0.265411
0.262974
0.260533
0.258088
0.25564
0.253189
0.250737
0.248283
0.245828
0.243372
0.240917
0.238462
0.236008
0.233555
0.231105
0.228657
0.226211
0.22377
0.221332
0.218898
0.216469
0.214045
0.211627
0.209214
0.206809
0.204409
0.202018
0.199634
0.197257
0.19489
0.192531
0.190181
0.187841
0.185511
0.18319
0.180881
0.178582
0.176295
0.174019
0.171755
0.169503
0.167264
0.165037
0.162823
0.160623
0.158436
0.156263
0.154104
0.151959
0.149829
0.147714
0.145613
0.143528
0.141458
0.139404
0.137366
0.135343
0.133337
0.131347
0.129374
0.127417
0.125477
0.123553
0.121647
0.119758
0.117886
0.116032
0.114195
0.112375
0.110574
0.10879
0.107023
0.105275
0.103545
0.101832
0.100138
0.098462
0.0968039
0.095164
0.0935423
0.0919388
0.0903535
0.0887865
0.0872376
0.085707
0.0841946
0.0827004
0.0812243
0.0797664
0.0783267
0.076905
0.0755014
0.0741158
0.0727481
0.0713983
0.0700664
0.0687522
0.0674558
0.066177
0.0649158
0.063672
0.0624457
0.0612366
0.0600448
0.0588702
0.0577126
0.0565719
0.055448
0.0543409
0.0532504
0.0521764
0.0511188
0.0500775
0.0490524
0.0480432
0.04705
0.0460726
0.0451108
0.0441646
0.0432337
0.0423181
0.0414176
0.0405321
0.0396614
0.0388054
0.037964
0.037137
0.0363242
0.0355256
0.0347409
0.0339701
0.0332129
0.0324693
0.031739
0.0310219
0.0303179
0.0296268
0.0289485
0.0282828
0.0276295
0.0269886
0.0263597
0.0257429
0.0251379
0.0245446
0.0239628
0.0233923
0.0228331
0.0222849
0.0217477
0.0212212
0.0207053
0.0201998
0.0197047
0.0192197
0.0187446
0.0182795
0.017824
0.0173781
0.0169415
0.0165143
0.0160961
0.0156869
0.0152865
0.0148947
0.0145116
0.0141368
0.0137702
0.0134118
0.0130613
0.0127187
0.0123837
0.0120564
0.0117364
0.0114238
0.0111184
0.0108199
0.0105284
0.0102437
0.00996568
0.00969417
0.00942908
0.00917028
0.00891765
0.00867108
0.00843045
0.00819565
0.00796655
0.00774305
0.00752504
0.0073124
0.00710504
0.00690283
0.00670568
0.00651348
0.00632613
0.00614353
0.00596557
0.00579217
0.00562322
0.00545863
0.0052983
0.00514215
0.00499008
0.004842
0.00469782
0.00455746
0.00442083
0.00428785
0.00415843
0.0040325
0.00390998
0.00379078
0.00367483
0.00356206
0.00345238
0.00334573
0.00324204
0.00314123
0.00304324
0.002948
0.00285544
0.00276549
0.0026781
0.0025932
0.00251073
0.00243062
0.00235283
0.00227729
0.00220394
0.00213273
0.0020636
0.00199651
0.00193139
0.00186821
0.0018069
0.00174742
0.00168972
0.00163375
0.00157947
0.00152684
0.0014758
0.00142632
0.00137836
0.00133187
0.00128681
0.00124314
0.00120083
0.00115984
0.00112013
0.00108167
0.00104442
0.00100834
0.000973408
0.000939588
0.000906847
0.000875156
0.000844483
0.000814799
0.000786076
0.000758286
0.000731402
0.000705396
0.000680244
0.000655919
0.000632398
0.000609656
0.00058767
0.000566417
0.000545875
0.000526023
0.00050684
0.000488304
0.000470398
0.000453099
0.000436392
0.000420256
0.000404673
0.000389628
0.000375103
0.000361081
0.000347546
0.000334484
0.000321878
0.000309715
0.00029798
0.00028666
0.00027574
0.000265209
0.000255053
0.00024526
0.000235818
0.000226715
0.000217941
0.000209485
0.000201335
0.000193482
0.000185916
0.000178626
0.000171605
0.000164842
0.000158329
0.000152057
0.000146018
0.000140204
0.000134608
0.000129221
0.000124037
0.000119048
0.000114248
0.000109629
0.000105187
0.000100914
9.68037e-05
9.28515e-05
8.90513e-05
8.53976e-05
8.18852e-05
7.85091e-05
7.52642e-05
7.21459e-05
6.91495e-05
6.62707e-05
6.3505e-05
6.08484e-05
5.82969e-05
5.58465e-05
5.34936e-05
5.12345e-05
4.90657e-05
4.69839e-05
4.49858e-05
4.30682e-05
4.12281e-05
3.94627e-05
3.7769e-05
3.61443e-05
3.45861e-05
3.30917e-05
3.16587e-05
3.02849e-05
2.89678e-05
2.77053e-05
2.64953e-05
2.53357e-05
2.42246e-05
2.31601e-05
2.21404e-05
2.11637e-05
2.02284e-05
1.93327e-05
1.84751e-05
1.76542e-05
1.68685e-05
1.61165e-05
1.53969e-05
1.47085e-05
1.405e-05
1.34202e-05
1.2818e-05
1.22422e-05
1.16918e-05
1.11658e-05
1.06631e-05
1.01829e-05
9.7243e-06
9.28635e-06
8.86825e-06
8.46921e-06
8.08846e-06
7.72527e-06
7.37894e-06
7.0488e-06
6.73419e-06
6.43452e-06
6.14918e-06
5.87761e-06
5.61928e-06
5.37367e-06
5.14029e-06
4.91866e-06
4.70835e-06
4.50893e-06
4.31999e-06
4.14115e-06
3.97204e-06
3.81231e-06
3.66164e-06
3.51971e-06
3.38623e-06
3.26093e-06
3.14354e-06
3.03381e-06
2.93151e-06
2.83644e-06
2.74839e-06
2.66718e-06
2.59262e-06
2.52457e-06
2.46288e-06
2.40742e-06
2.35807e-06
2.31473e-06
2.2773e-06
2.2457e-06
2.21986e-06
2.19974e-06
2.18528e-06
2.17646e-06
2.17326e-06
)
;

boundaryField
{
    sides
    {
        type            zeroGradient;
    }
    empty
    {
        type            empty;
    }
}


// ************************************************************************* //
