/*--------------------------------*- C++ -*----------------------------------*\
| =========                 |                                                 |
| \\      /  F ield         | OpenFOAM: The Open Source CFD Toolbox           |
|  \\    /   O peration     | Version:  2312                                  |
|   \\  /    A nd           | Website:  www.openfoam.com                      |
|    \\/     M anipulation  |                                                 |
\*---------------------------------------------------------------------------*/
FoamFile
{
    version     2.0;
    format      ascii;
    arch        "LSB;label=32;scalar=64";
    class       volScalarField;
    location    "3.9";
    object      T;
}
// * * * * * * * * * * * * * * * * * * * * * * * * * * * * * * * * * * * * * //

dimensions      [0 0 0 1 0 0 0];

internalField   nonuniform List<scalar> 
1000
(
0
0
0
0
0
0
0
0
0
0
0
0
0
0
0
0
0
0
0
0
0
0
0
0
0
0
0
0
0
0
0
0
0
0
0
0
0
0
0
0
0
0
0
0
0
0
0
0
0
0
0
0
0
0
0
0
0
0
0
0
0
0
0
0
0
0
0
0
0
0
0
0
0
0
0
0
0
0
0
0
0
0
0
0
0
0
0
0
0
0
0
0
0
0
0
0
0
0
0
0
0
0
0
0
0
0
0
0
0
0
0
0
0
0
0
0
0
0
0
0
0
0
0
0
0
0
0
0
0
0
0
0
0
0
0
0
0
0
0
0
0
0
0
0
0
0
0
0
0
0
0
0
0
0
0
0
0
0
0
0
0
0
0
0
0
0
0
0
0
0
0
0
0
0
0
0
0
0
0
0
0
0
0
0
0
0
0
0
0
0
0
0
0
0
0
0
0
0
0
0
0
0
0
0
0
0
0
0
0
0
0
0
0
0
0
0
0
0
0
0
0
0
0
0
0
0
0
0
0
0
0
0
0
0
0
0
0
0
0
0
0
0
0
0
0
0
0
0
0
0
0
0
0
0
0
0
0
0
0
0
0
0
0
0
0
0
0
0
0
0
0
0
0
0
0
0
0
0
0
0
0
0
0
0
0
0
0
0
0
0
0
0
0
0
0
0
0
0
0
0
0
0
0
0
0
0
0
0
0
0
0
0
0
0
0
0
0
0
0
0
0
0
0
0
0
0
0
0
0
0
0
0
0
0
0
0
0
0
0
0
0
0
0
0
0
0
0
0
0
0
0
0
0
0
0
0
0
0
0
0
0
0
0
0
0
0
0
0
0
0
0
0
0
0
0
0
0
0
0
0
0
0
0
0
0
0
0
0
0
0
0
0
0
0
0
0
0
0
0
0
0
0
0
0
2.13716e-142
-1.43467e-126
8.62063e-119
-4.9531e-115
-7.64252e-113
-5.0822e-111
-1.53554e-109
2.28528e-108
5.18389e-106
3.24931e-104
1.39221e-102
4.71621e-101
1.3403e-99
3.30198e-98
7.20327e-97
1.41262e-95
2.51891e-94
4.12084e-93
6.23033e-92
8.75811e-91
1.15054e-89
1.41866e-88
1.64812e-87
1.80994e-86
1.88437e-85
1.86472e-84
1.75791e-83
1.58198e-82
1.36149e-81
1.1224e-80
8.87618e-80
6.74236e-79
4.92491e-78
3.46271e-77
2.34548e-76
1.5316e-75
9.64701e-75
5.86309e-74
3.43883e-73
1.94626e-72
1.06244e-71
5.58917e-71
2.8293e-70
1.37485e-69
6.38847e-69
2.82073e-68
1.17065e-67
4.47392e-67
1.50527e-66
3.90255e-66
2.67851e-66
-5.9884e-65
-5.96042e-64
-4.07631e-63
-2.39171e-62
-1.28249e-61
-6.45814e-61
-3.09801e-60
-1.42785e-59
-6.35787e-59
-2.74556e-58
-1.15305e-57
-4.71925e-57
-1.88547e-56
-7.36304e-56
-2.81354e-55
-1.05293e-54
-3.86221e-54
-1.38948e-53
-4.90585e-53
-1.70081e-52
-5.79289e-52
-1.93926e-51
-6.38374e-51
-2.06726e-50
-6.58839e-50
-2.06729e-49
-6.3891e-49
-1.94564e-48
-5.84032e-48
-1.72874e-47
-5.04775e-47
-1.45444e-46
-4.13684e-46
-1.16185e-45
-3.22299e-45
-8.83286e-45
-2.39203e-44
-6.40213e-44
-1.69366e-43
-4.42895e-43
-1.14489e-42
-2.92554e-42
-7.38941e-42
-1.84477e-41
-4.55157e-41
-1.10974e-40
-2.67348e-40
-6.36338e-40
-1.49631e-39
-3.47588e-39
-7.9766e-39
-1.80847e-38
-4.05141e-38
-8.97006e-38
-1.96342e-37
-4.25045e-37
-9.10494e-37
-1.93107e-36
-4.05778e-36
-8.45397e-36
-1.74757e-35
-3.5868e-35
-7.31372e-35
-1.4822e-34
-2.98599e-34
-5.97909e-34
-1.18947e-33
-2.34909e-33
-4.60032e-33
-8.92068e-33
-1.70996e-32
-3.23364e-32
-6.01936e-32
-1.10017e-31
-1.96858e-31
-3.43649e-31
-5.8271e-31
-9.54205e-31
-1.49647e-30
-2.21839e-30
-3.03702e-30
-3.65379e-30
-3.33365e-30
-5.49009e-31
7.52781e-30
2.56202e-29
6.07736e-29
1.21952e-28
2.17422e-28
3.47356e-28
4.87463e-28
5.57581e-28
3.68111e-28
-4.60722e-28
-2.60164e-27
-7.1128e-27
-1.54286e-26
-2.90446e-26
-4.84983e-26
-7.09362e-26
-8.51248e-26
-6.22102e-26
5.99949e-26
4.01641e-25
1.17614e-24
2.7352e-24
5.61651e-24
1.05749e-23
1.85573e-23
3.05518e-23
4.71985e-23
6.80054e-23
8.99746e-23
1.05452e-22
9.91169e-23
4.43294e-23
-1.00347e-22
-3.9253e-22
-9.01706e-22
-1.69318e-21
-2.79126e-21
-4.10953e-21
-5.33393e-21
-5.74552e-21
-3.9774e-21
2.28077e-21
1.65805e-20
4.39037e-20
9.05414e-20
1.63343e-19
2.67876e-19
4.04911e-19
5.64585e-19
7.17715e-19
8.04122e-19
7.18709e-19
2.97404e-19
-6.92387e-19
-2.54896e-18
-5.60913e-18
-1.018e-17
-1.64093e-17
-2.40748e-17
-3.22805e-17
-3.9077e-17
-4.10623e-17
-3.28933e-17
-6.61299e-18
4.89145e-17
1.48099e-16
3.07258e-16
5.36454e-16
8.21491e-16
1.10779e-15
1.29531e-15
1.01902e-15
-1.42719e-15
-6.64548e-15
-1.11189e-14
-8.1081e-15
1.1736e-14
3.81445e-14
3.75761e-14
-1.71036e-14
-1.0481e-13
-1.18238e-13
2.03163e-14
2.68718e-13
3.4293e-13
9.25152e-15
-6.53388e-13
-9.55993e-13
-2.2754e-13
1.48036e-12
2.6161e-12
1.22049e-12
-3.0796e-12
-6.90678e-12
-4.8712e-12
5.13001e-12
1.72484e-11
1.68112e-11
-4.29414e-12
-3.89615e-11
-5.21496e-11
-1.45893e-11
7.33435e-11
1.43885e-10
1.02319e-10
-9.25596e-11
-3.46841e-10
-3.84394e-10
-4.40883e-11
6.39667e-10
1.15103e-09
8.03186e-10
-6.85597e-10
-2.69262e-09
-3.27742e-09
-1.09239e-09
4.05992e-09
9.15129e-09
8.75381e-09
-2.07679e-10
-1.64207e-08
-2.88743e-08
-2.33633e-08
7.89892e-09
5.7049e-08
8.92972e-08
6.61779e-08
-3.16211e-08
-1.79901e-07
-2.77068e-07
-2.13948e-07
6.91262e-08
5.17534e-07
8.65117e-07
7.69719e-07
3.14576e-08
-1.29631e-06
-2.62917e-06
-2.83175e-06
-1.30673e-06
2.30392e-06
7.01312e-06
1.00193e-05
8.39894e-06
3.42655e-07
-1.39182e-05
-2.95511e-05
-3.65082e-05
-2.71256e-05
4.18955e-06
5.57531e-05
0.000111999
0.000140725
0.000115328
1.63829e-05
-0.000161879
-0.000383809
-0.000566303
-0.000582617
-0.000378642
0.000126112
0.000929481
0.00189426
0.00272835
0.00296416
0.00235986
0.000580258
-0.00259436
-0.00706132
-0.012294
-0.0171915
-0.0199724
-0.0191499
-0.0134948
-0.00109706
0.0197247
0.0501824
0.0908653
0.141642
0.201637
0.2693
0.34254
0.418927
0.495911
0.57104
0.642156
0.707527
0.765937
0.816697
0.859622
0.894951
0.923253
0.945316
0.962047
0.974383
0.983217
0.989353
0.993482
0.996166
0.997847
0.998856
0.999434
0.999746
0.999902
0.999973
0.999998
1
1
1
1
1
1
1
1
1
1
1
1
1
1
1
1
1
1
1
1
1
1
1
1
1
1
0.999999
0.999999
0.999999
1
1
1
1
1
0.999998
0.999993
0.99999
0.999992
1
1.00001
1.00003
1.00004
1.00003
0.999996
0.999944
0.999888
0.999859
0.999885
0.999984
1.00016
1.00038
1.00057
1.00058
1.00038
0.999873
0.999069
0.998105
0.997272
0.997038
0.997644
0.999426
1.0026
1.00707
1.0123
1.01719
1.01997
1.01914
1.01347
1.00106
0.980226
0.949755
0.90906
0.858273
0.798269
0.730601
0.657359
0.580974
0.503995
0.428872
0.357765
0.292403
0.234004
0.183254
0.140339
0.105018
0.0767239
0.054667
0.0379403
0.0256086
0.0167778
0.0106431
0.00651575
0.00383258
0.0021524
0.00114342
0.000566016
0.000254206
9.78812e-05
2.74848e-05
2.48108e-06
7.91261e-17
7.81391e-17
7.72157e-17
7.53679e-17
7.27637e-17
6.95647e-17
6.59163e-17
6.19492e-17
5.77791e-17
5.35069e-17
4.92187e-17
4.49867e-17
4.08699e-17
3.6915e-17
3.31575e-17
2.9623e-17
2.63283e-17
2.32828e-17
2.04895e-17
1.7946e-17
1.56457e-17
1.3579e-17
1.17335e-17
1.00953e-17
8.64926e-18
7.37982e-18
6.27125e-18
5.30808e-18
4.47535e-18
3.75884e-18
3.14519e-18
2.62201e-18
2.17792e-18
1.80259e-18
1.4867e-18
1.22193e-18
1.0009e-18
8.17112e-19
6.64872e-19
5.39242e-19
4.35953e-19
3.51341e-19
2.82274e-19
2.26092e-19
1.80548e-19
1.43751e-19
1.14119e-19
9.03353e-20
7.13052e-20
5.61266e-20
4.40571e-20
3.44888e-20
2.6926e-20
2.09658e-20
1.62822e-20
1.26121e-20
9.74426e-21
7.50948e-21
5.77275e-21
4.42669e-21
3.38617e-21
2.58394e-21
1.96703e-21
1.49383e-21
1.13178e-21
8.55465e-22
6.45103e-22
4.85344e-22
3.64309e-22
2.72832e-22
2.03861e-22
1.5198e-22
1.13048e-22
8.39e-23
6.21286e-23
4.59043e-23
3.38417e-23
2.48937e-23
1.82712e-23
1.33811e-23
9.77822e-24
7.12979e-24
5.18734e-24
3.76585e-24
2.72794e-24
1.9718e-24
1.42215e-24
1.02349e-24
7.34988e-25
5.26667e-25
3.76575e-25
2.68675e-25
1.91278e-25
1.35882e-25
9.6322e-26
6.8132e-26
4.80884e-26
3.38685e-26
2.38022e-26
1.66918e-26
1.16804e-26
8.15605e-27
5.68292e-27
3.95123e-27
2.74135e-27
1.89787e-27
1.31112e-27
9.03837e-28
6.21746e-28
4.26787e-28
2.92338e-28
1.99819e-28
1.36291e-28
9.27636e-29
6.3004e-29
4.27013e-29
2.888e-29
1.94912e-29
1.3127e-29
8.82226e-30
5.91674e-30
3.95982e-30
2.6446e-30
1.76254e-30
1.17222e-30
7.77997e-31
5.1528e-31
3.40572e-31
2.24633e-31
1.47857e-31
9.71211e-32
6.36636e-32
4.16462e-32
2.71875e-32
1.77122e-32
1.15157e-32
7.47173e-33
4.83802e-33
3.12631e-33
2.01612e-33
1.29754e-33
8.33389e-34
5.34195e-34
3.41727e-34
2.18165e-34
1.39003e-34
8.83877e-35
5.60912e-35
3.55249e-35
2.24548e-35
1.41652e-35
8.91826e-36
5.60376e-36
3.51417e-36
2.19945e-36
)
;

boundaryField
{
    sides
    {
        type            zeroGradient;
    }
    empty
    {
        type            empty;
    }
}


// ************************************************************************* //
