/*--------------------------------*- C++ -*----------------------------------*\
| =========                 |                                                 |
| \\      /  F ield         | OpenFOAM: The Open Source CFD Toolbox           |
|  \\    /   O peration     | Version:  2312                                  |
|   \\  /    A nd           | Website:  www.openfoam.com                      |
|    \\/     M anipulation  |                                                 |
\*---------------------------------------------------------------------------*/
FoamFile
{
    version     2.0;
    format      ascii;
    arch        "LSB;label=32;scalar=64";
    class       volScalarField;
    location    "2.6";
    object      T;
}
// * * * * * * * * * * * * * * * * * * * * * * * * * * * * * * * * * * * * * //

dimensions      [0 0 0 1 0 0 0];

internalField   nonuniform List<scalar> 
1000
(
0
0
0
0
0
0
0
0
0
0
0
0
0
0
0
0
0
0
0
0
0
0
0
0
0
0
0
0
0
0
0
0
0
0
0
0
0
0
0
0
0
0
0
0
0
0
0
0
0
0
0
0
0
0
0
0
0
0
0
0
0
0
0
0
0
0
0
0
0
0
0
0
0
0
0
0
0
0
0
0
0
0
0
0
0
0
0
0
0
0
0
0
0
0
0
0
0
0
0
0
0
0
0
0
0
0
0
0
0
0
0
0
0
0
0
0
0
0
0
0
0
0
0
0
0
0
0
0
0
0
0
0
0
0
0
0
0
0
0
0
0
0
0
0
0
0
0
0
0
0
0
0
0
0
0
0
0
0
0
0
0
0
0
0
0
0
0
0
0
0
0
0
0
0
0
0
0
0
0
0
0
0
0
0
0
0
0
0
0
0
0
0
0
0
0
0
0
0
0
0
0
0
0
0
0
0
0
0
0
0
0
0
0
0
0
0
0
0
0
0
0
0
0
0
0
0
0
0
0
0
0
0
0
0
0
0
0
0
0
0
0
0
0
0
0
0
0
0
0
0
0
0
0
0
0
0
0
0
0
0
0
0
0
0
0
0
0
0
0
0
0
0
0
0
0
0
0
0
0
0
0
0
0
0
0
0
0
0
0
0
0
0
0
0
0
0
0
0
0
0
0
0
0
0
0
0
0
0
0
0
0
0
0
0
0
0
0
0
0
0
0
0
0
0
0
0
0
0
0
0
0
0
0
0
0
0
0
0
0
0
0
0
0
0
0
0
0
0
0
0
0
0
0
0
0
0
0
0
0
0
0
0
0
0
0
0
0
0
0
0
0
0
0
0
0
0
0
0
0
0
0
0
0
0
0
0
0
0
0
0
0
0
0
0
0
0
0
0
0
0
0
0
0
0
2.83098e-105
-1.90042e-89
1.14193e-81
-6.65555e-78
-4.65675e-76
-6.11276e-75
6.93614e-73
5.08792e-71
1.98958e-69
5.61141e-68
1.25841e-66
2.35761e-65
3.80395e-64
5.39719e-63
6.83746e-62
7.82474e-61
8.16319e-60
7.82052e-59
6.92086e-58
5.68471e-57
4.35064e-56
3.11177e-55
2.08475e-54
1.31019e-53
7.72873e-53
4.27717e-52
2.21607e-51
1.07011e-50
4.7734e-50
1.93219e-49
6.82e-49
1.8705e-48
1.90005e-48
-2.2983e-47
-2.41331e-46
-1.63117e-45
-9.2558e-45
-4.73267e-44
-2.24664e-43
-1.00567e-42
-4.28425e-42
-1.74725e-41
-6.84925e-41
-2.58802e-40
-9.44578e-40
-3.3354e-39
-1.14094e-38
-3.78503e-38
-1.2191e-37
-3.81636e-37
-1.16257e-36
-3.45098e-36
-9.9974e-36
-2.83148e-35
-7.85502e-35
-2.13869e-34
-5.72579e-34
-1.50979e-33
-3.92535e-33
-1.00673e-32
-2.54597e-32
-6.34146e-32
-1.55268e-31
-3.7278e-31
-8.75124e-31
-2.00277e-30
-4.45488e-30
-9.60398e-30
-2.00165e-29
-4.0256e-29
-7.807e-29
-1.4624e-28
-2.6618e-28
-4.77152e-28
-8.62737e-28
-1.62506e-27
-3.27701e-27
-7.09478e-27
-1.60792e-26
-3.67734e-26
-8.22199e-26
-1.75701e-25
-3.5283e-25
-6.54527e-25
-1.09323e-24
-1.55746e-24
-1.59614e-24
-4.10541e-27
5.85719e-24
2.09568e-23
5.3328e-23
1.13519e-22
2.10293e-22
3.38091e-22
4.49428e-22
4.04246e-22
-1.08314e-22
-1.66581e-21
-5.18077e-21
-1.18281e-20
-2.26097e-20
-3.71949e-20
-5.15531e-20
-5.39155e-20
-1.89908e-20
9.85253e-20
3.67828e-19
8.7613e-19
1.70063e-18
2.84041e-18
4.08798e-18
4.8278e-18
3.76993e-18
-1.34401e-18
-1.39149e-17
-3.82244e-17
-7.80273e-17
-1.32928e-16
-1.91605e-16
-2.2632e-16
-1.85635e-16
1.31752e-16
1.16439e-15
2.88514e-15
3.73632e-15
-1.2852e-15
-1.29722e-14
-1.58704e-14
8.56307e-15
4.65125e-14
3.58544e-14
-5.93033e-14
-1.37985e-13
-3.08081e-14
2.57296e-13
3.27086e-13
-1.49345e-13
-8.22376e-13
-6.05427e-13
9.62735e-13
2.25692e-12
7.22093e-13
-3.68547e-12
-5.61026e-12
4.73103e-13
1.19611e-11
1.27027e-11
-6.72453e-12
-3.40515e-11
-2.87008e-11
2.85906e-11
9.27204e-11
6.48727e-11
-9.34815e-11
-2.47528e-10
-1.52291e-10
2.67492e-10
6.53613e-10
4.03269e-10
-6.82912e-10
-1.72407e-09
-1.17789e-09
1.52449e-09
4.4759e-09
3.68456e-09
-2.77287e-09
-1.13818e-08
-1.15437e-08
2.67991e-09
2.65752e-08
3.5168e-08
7.79756e-09
-5.41233e-08
-9.95214e-08
-6.27619e-08
7.9793e-08
2.51874e-07
2.59377e-07
-1.64441e-09
-4.91266e-07
-8.26226e-07
-5.5088e-07
5.25348e-07
1.95852e-06
2.44355e-06
9.68893e-07
-2.65362e-06
-6.69895e-06
-7.16494e-06
-1.94923e-06
9.31769e-06
2.14222e-05
2.29242e-05
7.92589e-06
-2.58498e-05
-6.50227e-05
-7.96138e-05
-4.73646e-05
4.40144e-05
0.000174843
0.000273426
0.000253737
6.27157e-05
-0.000313679
-0.000775617
-0.0010701
-0.000954518
-0.000263336
0.001082
0.00284246
0.00440569
0.004743
0.00336853
-0.000388463
-0.00668194
-0.0147905
-0.0229341
-0.0278541
-0.0267235
-0.0173898
0.00324195
0.0374817
0.0864021
0.149631
0.225351
0.310515
0.401241
0.493301
0.582622
0.665714
0.739966
0.803784
0.856575
0.898615
0.930837
0.954589
0.971404
0.982813
0.990209
0.994768
0.997423
0.998866
0.999585
0.9999
0.999996
1
1
1
1
1
1
1
1
1
1
1
1
1
1
1
1
1
1
1
1
1
1
1
1
1
1
1
1
1
1
1
1
1
1
1
1
1
0.999999
0.999998
0.999998
0.999999
1
1.00001
1.00001
1
0.999991
0.999979
0.999977
0.999992
1.00003
1.00006
1.00008
1.00005
0.999956
0.999825
0.999727
0.999747
0.999938
1.00031
1.00078
1.00107
1.00095
1.00026
0.998916
0.997157
0.995596
0.995259
0.996635
1.0004
1.00669
1.0148
1.02294
1.02784
1.0267
1.01735
0.9967
0.962442
0.913505
0.850262
0.774533
0.689364
0.59864
0.506587
0.417277
0.334198
0.25996
0.196157
0.14338
0.101352
0.0691393
0.0453954
0.0285862
0.0171812
0.00978792
0.00523004
0.00257639
0.00113339
0.000414542
0.00010031
4.00555e-06
1.89292e-16
1.86531e-16
1.82764e-16
1.76056e-16
1.67129e-16
1.56575e-16
1.44925e-16
1.32648e-16
1.20147e-16
1.07756e-16
9.57461e-17
8.4323e-17
7.36366e-17
6.37858e-17
5.48254e-17
4.67738e-17
3.96199e-17
3.33299e-17
2.78535e-17
2.31292e-17
1.90891e-17
1.56623e-17
1.27782e-17
1.03687e-17
8.36986e-18
6.72258e-18
5.3736e-18
4.27551e-18
3.38675e-18
2.6713e-18
2.09833e-18
1.64173e-18
1.27957e-18
9.9361e-19
7.68779e-19
5.92741e-19
4.55453e-19
3.48794e-19
2.66239e-19
2.02569e-19
1.53637e-19
1.16159e-19
8.7551e-20
6.57851e-20
4.92789e-20
3.68017e-20
2.74e-20
2.03382e-20
1.50506e-20
1.11038e-20
8.16717e-21
5.9889e-21
4.37822e-21
3.19095e-21
2.31853e-21
1.67947e-21
1.21282e-21
8.73142e-22
6.26659e-22
4.48368e-22
3.19811e-22
2.27408e-22
1.61201e-22
1.13915e-22
8.02496e-23
5.63576e-23
3.94556e-23
2.75366e-23
1.91584e-23
1.32878e-23
9.18744e-24
6.3326e-24
4.35128e-24
2.98058e-24
2.03533e-24
1.38554e-24
9.40274e-25
6.36129e-25
4.29035e-25
2.88468e-25
1.93359e-25
1.29209e-25
8.6077e-26
5.71676e-26
3.78516e-26
2.49858e-26
1.64429e-26
1.07881e-26
7.05659e-27
4.60185e-27
2.992e-27
1.93947e-27
1.25344e-27
8.07658e-28
5.18866e-28
3.32348e-28
2.12248e-28
1.35148e-28
8.58022e-29
5.43139e-29
3.42809e-29
2.15738e-29
1.35375e-29
8.47011e-30
5.28427e-30
3.28722e-30
2.03904e-30
1.26118e-30
7.77842e-31
4.78375e-31
2.93368e-31
1.79403e-31
1.09401e-31
6.65264e-32
4.03413e-32
2.43945e-32
1.47104e-32
8.84609e-33
5.30489e-33
3.17252e-33
1.89206e-33
1.12532e-33
6.67469e-34
3.94821e-34
2.32911e-34
1.37026e-34
8.03972e-35
4.70445e-35
2.74543e-35
1.5979e-35
9.27528e-36
5.36968e-36
3.10039e-36
1.78539e-36
1.02543e-36
5.87396e-37
3.35596e-37
1.91234e-37
1.08688e-37
6.16116e-38
3.48352e-38
1.96448e-38
1.10498e-38
6.19933e-39
3.46911e-39
1.93633e-39
1.07803e-39
5.98651e-40
3.31599e-40
1.83211e-40
1.0097e-40
5.5506e-41
3.04365e-41
1.66479e-41
9.08317e-42
4.94348e-42
2.68378e-42
1.4534e-42
7.85139e-43
4.23094e-43
2.27435e-43
1.21959e-43
6.52384e-44
3.48124e-44
1.85313e-44
9.84066e-45
5.21302e-45
2.7549e-45
1.45236e-45
7.63834e-46
4.00758e-46
2.09762e-46
1.09531e-46
5.70575e-47
2.96523e-47
1.53737e-47
7.95189e-48
4.10338e-48
2.11248e-48
1.08499e-48
5.55966e-49
2.84222e-49
1.44963e-49
7.37651e-50
3.74491e-50
1.89684e-50
9.58567e-51
4.83301e-51
2.4312e-51
1.2202e-51
6.11022e-52
3.05278e-52
1.52178e-52
7.56884e-53
3.75602e-53
1.85974e-53
9.18764e-54
4.52883e-54
2.22741e-54
1.09308e-54
5.35228e-55
2.61498e-55
1.27479e-55
6.20091e-56
3.00968e-56
1.45759e-56
7.04373e-57
3.39645e-57
1.63421e-57
7.846e-58
3.75882e-58
1.79689e-58
8.57152e-59
4.08004e-59
1.93796e-59
9.18541e-60
4.3444e-60
2.05041e-60
9.65682e-61
4.5385e-61
2.12851e-61
9.96163e-62
4.65239e-62
2.16828e-62
1.00844e-62
4.68042e-63
2.1678e-63
1.00198e-63
4.6217e-64
2.12742e-64
9.77271e-65
4.48011e-65
2.04964e-65
9.35802e-66
4.26392e-66
1.9389e-66
8.79885e-67
3.98494e-67
1.80114e-67
8.12458e-68
3.65754e-68
1.64328e-68
7.36835e-69
3.29738e-69
1.47268e-69
6.56435e-70
2.92025e-70
1.29657e-70
5.74545e-71
2.54099e-71
1.1216e-71
)
;

boundaryField
{
    sides
    {
        type            zeroGradient;
    }
    empty
    {
        type            empty;
    }
}


// ************************************************************************* //
