/*--------------------------------*- C++ -*----------------------------------*\
| =========                 |                                                 |
| \\      /  F ield         | OpenFOAM: The Open Source CFD Toolbox           |
|  \\    /   O peration     | Version:  2312                                  |
|   \\  /    A nd           | Website:  www.openfoam.com                      |
|    \\/     M anipulation  |                                                 |
\*---------------------------------------------------------------------------*/
FoamFile
{
    version     2.0;
    format      ascii;
    arch        "LSB;label=32;scalar=64";
    class       volScalarField;
    location    "2.7";
    object      T;
}
// * * * * * * * * * * * * * * * * * * * * * * * * * * * * * * * * * * * * * //

dimensions      [0 0 0 1 0 0 0];

internalField   nonuniform List<scalar> 
1000
(
9.76678e-42
-1.60133e-41
3.68835e-41
-8.18512e-41
1.81838e-40
-4.02935e-40
8.909e-40
-1.96538e-39
4.32596e-39
-9.5003e-39
2.08163e-38
-4.55071e-38
9.92565e-38
-2.15993e-37
4.68938e-37
-1.01574e-36
2.19502e-36
-4.73237e-36
1.01788e-35
-2.18418e-35
4.67576e-35
-9.98574e-35
2.1275e-34
-4.52185e-34
9.58769e-34
-2.02796e-33
4.27905e-33
-9.00685e-33
1.89118e-32
-3.96113e-32
8.27616e-32
-1.72487e-31
3.5859e-31
-7.43615e-31
1.53816e-30
-3.17359e-30
6.53122e-30
-1.34068e-29
2.74497e-29
-5.60565e-29
1.14179e-28
-2.31959e-28
4.69997e-28
-9.49805e-28
1.91435e-27
-3.84815e-27
7.71471e-27
-1.54247e-26
3.07567e-26
-6.11618e-26
1.21293e-25
-2.3988e-25
4.73101e-25
-9.30479e-25
1.82493e-24
-3.56917e-24
6.96085e-24
-1.3537e-23
2.6251e-23
-5.07598e-23
9.78681e-23
-1.88149e-22
3.60657e-22
-6.89304e-22
1.31355e-21
-2.49568e-21
4.72754e-21
-8.92845e-21
1.68114e-20
-3.1558e-20
5.90589e-20
-1.10185e-19
2.04935e-19
-3.79975e-19
7.02313e-19
-1.294e-18
2.37661e-18
-4.35103e-18
7.94012e-18
-1.44429e-17
2.61858e-17
-4.73205e-17
8.52309e-17
-1.53002e-16
2.73743e-16
-4.88113e-16
8.67405e-16
-1.53616e-15
2.71113e-15
-4.76822e-15
8.35684e-15
-1.45947e-14
2.53984e-14
-4.40414e-14
7.60937e-14
-1.30996e-13
2.24685e-13
-3.83959e-13
6.53701e-13
-1.10877e-12
1.87353e-12
-3.1537e-12
5.28821e-12
-8.83303e-12
1.46963e-11
-2.43552e-11
4.02015e-11
-6.60913e-11
1.08214e-10
-1.76458e-10
2.86551e-10
-4.63392e-10
7.46211e-10
-1.19653e-09
1.91038e-09
-3.03686e-09
4.80642e-09
-7.57339e-09
1.18798e-08
-1.85507e-08
2.88348e-08
-4.46129e-08
6.87013e-08
-1.05295e-07
1.60607e-07
-2.43785e-07
3.68224e-07
-5.53416e-07
8.27558e-07
-1.23118e-06
1.82219e-06
-2.68275e-06
3.92871e-06
-5.72231e-06
8.28912e-06
-1.19406e-05
1.71034e-05
-2.43581e-05
3.44879e-05
-4.85409e-05
6.79083e-05
-9.44204e-05
0.000130463
-0.000179116
0.000244318
-0.000331049
0.000445537
-0.00059548
0.000790269
-0.0010412
0.00136167
-0.00176727
0.00227585
-0.00290735
0.00368355
-0.00462745
0.00576242
-0.00711096
0.00869306
-0.0105241
0.0126123
-0.0149559
0.01754
-0.0203333
0.023285
-0.0263226
0.0293497
-0.0322464
0.0348706
-0.0370621
0.0386495
-0.0394593
0.0393289
-0.0381206
0.0357388
-0.0321458
0.0273775
-0.0215557
0.0148941
-0.00769739
0.000351005
0.0066999
-0.0129816
0.018032
-0.0214472
0.0229296
-0.0223325
0.0196938
-0.0152542
0.00945169
-0.00289263
-0.0037044
0.00958583
-0.014055
0.0165672
-0.0168136
0.0147809
-0.0107721
0.00538147
0.00057835
-0.0061912
0.010579
-0.0130484
0.0132167
-0.0110921
0.0070883
-0.0019641
-0.00330636
0.0077139
-0.0104123
0.0108941
-0.00910563
0.00547032
-0.000809714
-0.00382858
0.00740221
-0.00911444
0.00860655
-0.00605215
0.00212397
0.002166
-0.00571894
0.00763304
-0.00744436
0.00525697
-0.00172078
-0.00214416
0.00523356
-0.00667698
0.00609503
-0.00371605
0.000310496
0.0030436
-0.00529681
0.00576215
-0.00433817
0.00154355
0.00165453
-0.0041669
0.00515612
-0.00432831
0.00203722
0.000842155
-0.00323085
0.00424197
-0.00350926
0.00132195
0.00149086
-0.00388714
0.00502634
-0.0046077
0.00299433
-0.00106768
-0.000132518
-0.000163828
0.00214151
-0.00533392
0.00883913
-0.0117271
0.0134597
-0.0141331
0.0144295
-0.0152949
0.0174862
-0.0212006
0.02596
-0.0308111
0.0347452
-0.0371362
0.0379799
-0.0378155
0.0373693
-0.037105
0.0369186
-0.0361438
0.0338774
-0.029458
0.0228511
-0.0147331
0.00622866
0.00155789
-0.00796341
0.0129132
-0.0167255
0.0197049
-0.0217806
0.0224254
-0.0209227
0.0168397
-0.0104253
0.00268824
0.00491352
-0.0110118
0.0148003
-0.0161911
0.0156
-0.0135397
0.0103046
-0.00596043
0.000625242
0.00518377
-0.0104313
0.0138251
-0.0143546
0.0117997
-0.0068957
0.00104086
0.00428546
-0.00805652
0.0099003
-0.00992796
0.00840027
-0.00552825
0.00155839
0.00296894
-0.00707524
0.00954422
-0.00943905
0.00663856
-0.00202467
-0.00284771
0.00643059
-0.00781635
0.00697528
-0.00453335
0.00133139
0.00189824
-0.00457585
0.00615999
-0.00613788
0.00426068
-0.000881753
-0.00292916
0.00572257
-0.00635098
0.00458753
-0.00126299
-0.0021843
0.00444885
-0.00491665
0.00375015
-0.00158017
-0.000867535
0.00294939
-0.00410217
0.00388144
-0.00218041
-0.000507064
0.00309457
-0.004357
0.00362716
-0.00125475
-0.0015477
0.00340658
-0.00355742
0.00216961
-8.09272e-05
-0.00176293
0.00273257
-0.00261078
0.00149981
0.000232876
-0.0019466
0.00284904
-0.00237451
0.000630524
0.00149378
-0.00278734
0.00249761
-0.000849347
-0.0011197
0.00227938
-0.00211585
0.000923789
0.000544446
-0.00158384
0.00181798
-0.00121315
2.28812e-05
0.00123373
-0.00188955
0.00147479
-0.000125025
-0.00135221
0.00196682
-0.00128623
-0.000200238
0.00144728
-0.00165398
0.000815598
0.000393476
-0.00120176
0.00123701
-0.000609234
-0.000295211
0.00102128
-0.00117754
0.000607367
0.000415528
-0.00122169
0.001179
-0.000251475
-0.000870612
0.00130389
-0.000730548
-0.000338222
0.00104381
-0.000918136
0.000185049
0.000555947
-0.000841444
0.00058249
1.46677e-05
-0.000601894
0.000810395
-0.000439546
-0.000313262
0.000871952
-0.000723448
-5.69987e-05
0.000790609
-0.00081553
0.000136159
0.000597003
-0.00074885
0.000278669
0.000330129
-0.000594092
0.000400263
4.28943e-05
-0.000432626
0.000517322
-0.000201281
-0.00032376
0.000614741
-0.000348002
-0.000278844
0.000653579
-0.000380504
-0.000259362
0.00060343
-0.000336376
-0.000207692
0.000478303
-0.000290889
-9.66704e-05
0.000343797
-0.00030652
3.8442e-05
0.000277798
-0.000381516
0.000120244
0.000306706
-0.000446163
9.73116e-05
0.000374409
-0.000425356
2.64781e-06
0.000388197
-0.000319818
-6.59545e-05
0.000313934
-0.000218662
-4.42924e-05
0.000222666
-0.000208522
1.90052e-05
0.000217147
-0.000265661
9.8672e-06
0.000301548
-0.000270294
-0.000106704
0.000358133
-0.000156096
-0.000223764
0.000292474
-1.19797e-05
-0.000224957
0.000171617
3.06833e-05
-0.000155246
0.000136479
-3.01654e-06
-0.000162351
0.000179148
4.13973e-05
-0.000254206
0.000137053
0.000188659
-0.000259483
-3.39745e-05
0.00026046
-0.000112409
-0.000153069
0.000170309
8.81668e-06
-0.000118379
9.09065e-05
-4.19138e-06
-9.93357e-05
0.000128081
2.23456e-05
-0.000193572
9.32958e-05
0.000177723
-0.000189005
-9.86873e-05
0.000223087
3.75569e-07
-0.000186015
7.11184e-05
9.86586e-05
-8.71917e-05
1.76641e-06
4.51983e-05
-7.93168e-05
3.50184e-05
0.000112648
-0.000122289
-9.99819e-05
0.000186919
5.59173e-05
-0.000210137
-3.2335e-06
0.000187793
-3.62902e-05
-0.000128621
4.87799e-05
4.90859e-05
-3.12952e-05
3.26069e-05
-8.98253e-06
-0.000101286
5.82548e-05
0.000147318
-0.000100759
-0.000166824
0.00012319
0.00016034
-0.000117961
-0.000130953
8.48913e-05
8.28584e-05
-3.12257e-05
-2.09196e-05
-2.99002e-05
-4.87291e-05
8.23718e-05
0.000117545
-0.00011111
-0.000173835
0.00010665
0.000203508
-6.93204e-05
-0.000193154
1.15199e-05
0.000135409
4.3644e-05
-3.52558e-05
-6.86836e-05
-8.56767e-05
4.27625e-05
0.000190599
3.55302e-05
-0.000237825
-0.000139647
0.000199362
0.000218248
-8.154e-05
-0.000214956
-6.44179e-05
0.000101494
0.00015532
9.10599e-05
-0.00011748
-0.000267258
-5.73113e-05
0.000308506
0.000277423
-0.00015477
-0.00038107
-0.000119735
0.000243051
0.000310653
9.47776e-05
-0.000213618
-0.000385415
-0.000173922
0.00033058
0.000553542
0.000122
-0.00051091
-0.000596858
-5.25893e-05
0.000530458
0.0006334
0.000199185
-0.000476594
-0.000868
-0.00049561
0.000489983
0.00118568
0.000810259
-0.000381671
-0.00134191
-0.00126306
-0.000172079
0.00122867
0.00196136
0.00128058
-0.000649475
-0.00252675
-0.0027829
-0.000934538
0.00195304
0.00404821
0.00388733
0.00111079
-0.00321517
-0.00677422
-0.00704623
-0.00292944
0.00426883
0.0113061
0.0144692
0.0110512
0.000476222
-0.0149192
-0.0298444
-0.0372214
-0.0301622
-0.00366921
0.0445545
0.113901
0.20093
0.299945
0.404235
0.50747
0.604499
0.69151
0.766085
0.827364
0.875952
0.913316
0.941122
0.961009
0.974709
0.983974
0.990209
0.994263
0.996667
0.997982
0.998797
0.999426
0.999827
0.999908
0.999818
0.999831
1.00001
1.00015
1.00006
0.999876
0.999851
1.00003
1.00018
1.00009
0.999872
0.999815
1
1.0002
1.00015
0.999897
0.999765
0.999926
1.00019
1.00024
0.999987
0.999733
0.999786
1.0001
1.00033
1.00018
0.999806
0.999627
0.999863
1.00028
1.00042
1.00011
0.999639
0.999517
0.999905
1.00044
1.00057
1.00012
0.999492
0.999294
0.999779
1.00055
1.00089
1.00042
0.999486
0.998886
0.999217
1.00031
1.00131
1.00133
1.00021
0.998706
0.997994
0.998781
1.0007
1.00247
1.00272
1.00098
0.998114
0.995915
0.996038
0.998914
1.0033
1.00677
1.00696
1.00292
0.995813
0.988722
0.985454
0.9889
0.999589
1.01499
1.0298
1.03714
1.03019
1.00376
0.955451
0.886007
0.799033
0.700137
0.595832
0.49247
0.395409
0.308514
0.23402
0.172653
0.123948
0.0866222
0.0589549
0.0390897
0.0252575
0.0159078
0.00976802
0.00584839
0.00341451
0.00194393
0.00107909
0.000583966
0.000308003
0.00015827
7.91942e-05
3.85614e-05
1.82558e-05
8.39366e-06
3.74261e-06
1.61528e-06
6.73089e-07
2.69866e-07
1.03598e-07
3.78031e-08
1.2961e-08
4.09109e-09
1.14003e-09
2.50162e-10
2.18957e-11
-1.8152e-11
-1.54122e-11
-8.16386e-12
-3.53842e-12
-1.33152e-12
-4.38142e-13
-1.22121e-13
-2.54553e-14
-1.46766e-15
2.17319e-15
1.57198e-15
7.38563e-16
2.78719e-16
8.72663e-17
2.15748e-17
3.16435e-18
-5.52142e-19
-6.99381e-19
-3.60456e-19
-1.37712e-19
-4.18403e-20
-9.50456e-21
-9.83422e-22
4.65152e-22
3.77358e-22
1.67833e-22
5.59324e-23
1.40611e-23
2.06612e-24
-3.10051e-25
-3.88744e-25
-1.84331e-25
-6.20723e-26
-1.53411e-26
-2.10004e-27
4.02231e-28
4.27344e-28
1.89703e-28
5.91987e-29
1.28562e-29
1.02599e-30
-7.05393e-31
-4.67327e-31
-1.75457e-31
-4.63012e-32
-7.23888e-33
6.43356e-34
1.00265e-33
4.4779e-34
1.33024e-34
2.55937e-35
6.34483e-37
-2.00376e-36
-1.04564e-36
-3.33832e-37
-6.99483e-38
-4.43933e-39
4.01149e-39
2.31943e-39
7.61677e-40
1.6223e-40
1.13659e-41
-8.52996e-42
-4.97726e-42
-1.6054e-42
-3.27929e-43
-1.73677e-44
1.93421e-44
1.03245e-44
3.12358e-45
5.73728e-46
4.73245e-48
-4.4509e-47
-2.03735e-47
-5.52818e-48
-8.29719e-49
7.27101e-50
9.78887e-50
3.72869e-50
8.6322e-51
8.48209e-52
-3.03217e-52
-1.96694e-52
-6.12971e-53
-1.11928e-53
-1.00335e-55
8.07433e-55
3.49446e-55
8.65994e-56
1.01976e-56
-2.19083e-57
-1.66969e-57
-5.31085e-58
-9.67398e-59
-9.49025e-61
6.66245e-60
2.7911e-60
6.5468e-61
6.46798e-62
-2.07613e-62
-1.29664e-62
-3.72396e-63
-5.70648e-64
3.50717e-65
5.38992e-65
1.88399e-65
3.66768e-66
1.34157e-67
-2.00351e-67
-8.71878e-68
-2.01206e-68
-1.8411e-69
6.54883e-70
3.75548e-70
9.95544e-71
1.27829e-71
-1.78593e-72
-1.52467e-72
-4.56668e-73
-7.1114e-74
3.34395e-75
5.89631e-75
1.97486e-75
3.49463e-76
1.48952e-78
-2.19404e-77
-8.14467e-78
-1.57701e-78
-5.66119e-80
7.93697e-80
3.23077e-80
6.66648e-81
3.73572e-82
-2.82169e-82
-1.24057e-82
-2.67061e-83
-1.82484e-84
9.96386e-85
4.63295e-85
1.021e-85
7.61424e-87
-3.52604e-87
-1.68799e-87
-3.74048e-88
-2.83085e-89
1.25707e-89
6.00951e-90
1.31572e-90
9.47915e-92
-4.51567e-92
-2.09085e-92
-4.44418e-93
-2.83092e-94
1.62684e-94
7.10061e-95
1.43917e-95
7.23875e-97
-5.83186e-97
-2.34823e-97
-4.45247e-98
-1.37862e-99
2.06155e-99
7.53728e-100
1.30817e-100
5.09566e-103
-7.12486e-102
-2.33824e-102
-3.61478e-103
1.24906e-104
2.38949e-104
6.97475e-105
9.23937e-106
-8.53198e-107
-7.72711e-107
-1.9877e-107
-2.11592e-108
4.01502e-109
2.39592e-109
5.36662e-110
4.02207e-111
-1.5941e-111
-7.0845e-112
-1.35623e-112
-4.70017e-114
5.65756e-114
1.98583e-114
3.1459e-115
-6.84037e-117
-1.83687e-116
-5.23756e-117
-6.45057e-118
7.32735e-119
5.51004e-119
1.28603e-119
1.06352e-120
-3.32781e-121
-1.53154e-121
-2.88948e-122
-9.02661e-124
1.17837e-123
3.93578e-124
5.74967e-125
-2.6007e-126
-3.60667e-126
-9.27795e-127
-9.36712e-128
1.81863e-128
9.86277e-129
1.97283e-129
9.12757e-131
-6.92443e-131
-2.43328e-131
-3.64909e-132
1.23767e-133
2.10093e-133
5.39515e-134
5.33179e-135
-1.04963e-135
-5.49315e-136
-1.05456e-136
-3.82805e-138
3.87515e-138
1.26485e-138
1.72634e-139
-1.07342e-140
-1.10062e-140
-2.55473e-141
-1.40156e-142
)
;

boundaryField
{
    sides
    {
        type            zeroGradient;
    }
    empty
    {
        type            empty;
    }
}


// ************************************************************************* //
