/*--------------------------------*- C++ -*----------------------------------*\
| =========                 |                                                 |
| \\      /  F ield         | OpenFOAM: The Open Source CFD Toolbox           |
|  \\    /   O peration     | Version:  2312                                  |
|   \\  /    A nd           | Website:  www.openfoam.com                      |
|    \\/     M anipulation  |                                                 |
\*---------------------------------------------------------------------------*/
FoamFile
{
    version     2.0;
    format      ascii;
    arch        "LSB;label=32;scalar=64";
    class       volScalarField;
    location    "2.1";
    object      T;
}
// * * * * * * * * * * * * * * * * * * * * * * * * * * * * * * * * * * * * * //

dimensions      [0 0 0 1 0 0 0];

internalField   nonuniform List<scalar> 
1000
(
2.3989e-73
-6.03155e-73
1.6915e-72
-4.74408e-72
1.3272e-71
-3.70602e-71
1.03285e-70
-2.87293e-70
7.97568e-70
-2.20985e-69
6.11092e-69
-1.68654e-68
4.64549e-68
-1.27705e-67
3.50364e-67
-9.5933e-67
2.6215e-66
-7.14924e-66
1.94579e-65
-5.28515e-65
1.43265e-64
-3.87559e-64
1.04629e-63
-2.81889e-63
7.57901e-63
-2.03354e-62
5.44497e-62
-1.45491e-61
3.8795e-61
-1.0323e-60
2.74112e-60
-7.26335e-60
1.92056e-59
-5.06758e-59
1.33429e-58
-3.50568e-58
9.19105e-58
-2.4045e-57
6.27695e-57
-1.63506e-56
4.24985e-56
-1.10222e-55
2.8524e-55
-7.36547e-55
1.89773e-54
-4.87871e-54
1.25145e-53
-3.20296e-53
8.17936e-53
-2.08406e-52
5.29814e-52
-1.34386e-51
3.40092e-51
-8.58715e-51
2.16325e-50
-5.43709e-50
1.3634e-49
-3.41095e-49
8.51365e-49
-2.12003e-48
5.26685e-48
-1.30538e-47
3.22772e-47
-7.96205e-47
1.95938e-46
-4.81031e-46
1.1781e-45
-2.87837e-45
7.01548e-45
-1.70574e-44
4.13719e-44
-1.001e-43
2.41596e-43
-5.81665e-43
1.39694e-42
-3.34654e-42
7.997e-42
-1.90618e-41
4.53215e-41
-1.07483e-40
2.54254e-40
-5.99906e-40
1.41183e-39
-3.31402e-39
7.75892e-39
-1.81182e-38
4.21977e-38
-9.80212e-38
2.27092e-37
-5.24722e-37
1.2092e-36
-2.77907e-36
6.36988e-36
-1.45608e-35
3.3194e-35
-7.54648e-35
1.71094e-34
-3.86837e-34
8.72198e-34
-1.96106e-33
4.39692e-33
-9.83066e-33
2.19173e-32
-4.87255e-32
1.08015e-31
-2.3876e-31
5.2624e-31
-1.1565e-30
2.53418e-30
-5.53674e-30
1.20612e-29
-2.61961e-29
5.67267e-29
-1.22472e-28
2.63617e-28
-5.65711e-28
1.2103e-27
-2.5814e-27
5.48885e-27
-1.16348e-26
2.45857e-26
-5.17897e-26
1.08751e-25
-2.27638e-25
4.74974e-25
-9.87871e-25
2.04799e-24
-4.23197e-24
8.71639e-24
-1.78938e-23
3.66126e-23
-7.4664e-23
1.51752e-22
-3.07394e-22
6.20555e-22
-1.24848e-21
2.50316e-21
-5.0014e-21
9.9582e-21
-1.97582e-20
3.90642e-20
-7.69602e-20
1.51077e-19
-2.95505e-19
5.75909e-19
-1.11829e-18
2.1635e-18
-4.17013e-18
8.00788e-18
-1.53198e-17
2.91971e-17
-5.54329e-17
1.04839e-16
-1.97513e-16
3.70655e-16
-6.9284e-16
1.28995e-15
-2.39206e-15
4.41795e-15
-8.12648e-15
1.48868e-14
-2.71585e-14
4.93398e-14
-8.92611e-14
1.60799e-13
-2.88434e-13
5.15148e-13
-9.16062e-13
1.62184e-12
-2.85866e-12
5.01615e-12
-8.76221e-12
1.52361e-11
-2.63712e-11
4.5432e-11
-7.79024e-11
1.32946e-10
-2.25794e-10
3.81629e-10
-6.41859e-10
1.0742e-09
-1.78875e-09
2.96354e-09
-4.88478e-09
8.00985e-09
-1.30654e-08
2.11988e-08
-3.42108e-08
5.49096e-08
-8.76467e-08
1.39121e-07
-2.19579e-07
3.44583e-07
-5.37608e-07
8.3382e-07
-1.28551e-06
1.96987e-06
-2.99996e-06
4.54015e-06
-6.82741e-06
1.02006e-05
-1.51404e-05
2.23222e-05
-3.26868e-05
4.75325e-05
-6.86331e-05
9.83879e-05
-0.000140007
0.00019774
-0.000277142
0.00038539
-0.000531629
0.00072735
-0.000986766
0.00132717
-0.00176919
0.00233696
-0.003058
0.0039628
-0.00508401
0.006455
-0.00810784
0.0100704
-0.0123628
0.0149929
-0.0179513
0.0212058
-0.0246959
0.0283283
-0.0319733
0.0354635
-0.0385967
0.041142
-0.0428512
0.0434762
-0.0427909
0.0406174
-0.036855
0.0315079
-0.0247091
0.0167357
-0.00801035
-0.000913335
0.00938568
-0.0167152
0.0222402
-0.0254106
0.0258716
-0.0235361
0.0186316
-0.0117111
0.00361592
0.00460973
-0.0118501
0.0170783
-0.0195245
0.0188215
-0.0150978
0.00899334
-0.00158091
-0.00580123
0.0117864
-0.0152442
0.0155216
-0.0126027
0.00714402
-0.000363051
-0.00621108
0.0110775
-0.0131203
0.0118951
-0.00776309
0.00182668
0.00433544
-0.00907664
0.0111316
-0.00998104
0.00601997
-0.000463719
-0.00499659
0.00870017
-0.00953465
0.00730018
-0.00279048
-0.0024529
0.00664827
-0.00838196
0.00710774
-0.0033524
-0.00146249
0.00553523
-0.0073564
0.00628799
-0.00281856
-0.00162083
0.00522412
-0.00654434
0.00509516
-0.00156044
-0.00249263
0.00529
-0.00563129
0.00342763
0.000255943
-0.00368932
0.00528493
-0.00435047
0.00142277
0.00199216
-0.00416051
0.00398499
-0.0015558
-0.0019031
0.00467981
-0.00548578
0.00415159
-0.00172584
-9.01784e-05
-0.000127114
0.00274285
-0.00687878
0.0109412
-0.013567
0.0144367
-0.0144656
0.0152448
-0.018057
0.0230638
-0.0291698
0.0346596
-0.0382095
0.039631
-0.0398587
0.0401864
-0.041257
0.0424914
-0.0423658
0.0393712
-0.0330174
0.0241938
-0.0146389
0.00589171
0.00152389
-0.00810135
0.0145542
-0.0208421
0.0257953
-0.0276795
0.0253304
-0.0190277
0.0104533
-0.00175599
-0.0055728
0.0111785
-0.0153762
0.0182187
-0.0189718
0.0165255
-0.010455
0.00184006
0.00692125
-0.0132718
0.0157934
-0.0146881
0.0111721
-0.0064109
0.000960103
0.00487185
-0.0102445
0.0135419
-0.0131356
0.0086336
-0.00151956
-0.00548702
0.00993992
-0.0108829
0.008901
-0.00519687
0.000702649
0.00397006
-0.00794386
0.00980491
-0.00828675
0.00345533
0.00278756
-0.0076
0.00892968
-0.0066845
0.00244163
0.00186573
-0.00501068
0.0065065
-0.00605765
0.00344356
0.000863896
-0.00518863
0.00724621
-0.00570899
0.00138042
0.00324009
-0.00572656
0.00526816
-0.00273784
-0.000412629
0.00309719
-0.00461584
0.00432626
-0.00192135
-0.00178898
0.00476438
-0.00499656
0.00221822
0.00169193
-0.00418127
0.003994
-0.00179501
-0.0008471
0.00273361
-0.00333328
0.0024187
-0.000115327
-0.00256803
0.00385654
-0.00255404
-0.000587017
0.00321061
-0.00338772
0.001279
0.00127691
-0.00258683
0.0022654
-0.000868972
-0.000902324
0.0023017
-0.00240313
0.000748635
0.00170288
-0.00293358
0.0017562
0.000806904
-0.00247458
0.00200548
-0.000189328
-0.0013583
0.00177938
-0.00116478
-0.000105919
0.00146649
-0.00193405
0.00078545
0.00124936
-0.00224005
0.0011067
0.000996128
-0.00195302
0.00106807
0.000473492
-0.00129281
0.0011024
-0.000288293
-0.00075701
0.00141625
-0.000890032
-0.00067962
0.00173092
-0.000954867
-0.000845568
0.00161148
-0.000641297
-0.000728262
0.00110579
-0.000542845
-0.00022594
0.000813564
-0.000896573
9.2096e-05
0.00107236
-0.0011618
-0.000197727
0.00136076
-0.000823546
-0.000599545
0.0010725
-0.000339527
-0.000432253
0.000628427
-0.000445432
-9.93736e-05
0.00081058
-0.000730145
-0.000433791
0.00118259
-0.00030487
-0.000963876
0.000805591
0.000312284
-0.000720148
0.000265154
0.000149764
-0.000388307
0.000502841
3.31366e-05
-0.000847178
0.000515535
0.000743874
-0.000891737
-0.000339409
0.000875205
-7.40389e-05
-0.000486152
0.000250313
-7.14099e-05
-0.000114351
0.000548249
-0.000228703
-0.000777326
0.000575859
0.000729654
-0.000737534
-0.000491433
0.000619921
0.000195268
-0.000251011
4.97665e-05
-0.000244964
-0.000196635
0.000701275
0.000257815
-0.000965529
-0.000272801
0.000943556
0.000268042
-0.000625016
-0.000232345
9.10543e-05
0.000122798
0.000496903
9.76777e-05
-0.000932448
-0.000407307
0.00102889
0.000689224
-0.000707025
-0.000750582
7.48174e-05
0.000419809
0.000559277
0.000301739
-0.000799478
-0.00112457
0.000407903
0.00152689
0.000431041
-0.00106448
-0.00106063
-0.000176134
0.000731589
0.00135373
0.000667278
-0.00132049
-0.00210638
-0.000254536
0.00196061
0.00199313
0.000262157
-0.00159003
-0.00250936
-0.00146012
0.00156626
0.0038653
0.00256283
-0.00139853
-0.00436678
-0.00412386
-0.000914669
0.00373841
0.00697421
0.0054532
-0.00108864
-0.00833167
-0.011015
-0.00701797
0.0023433
0.0133545
0.0201494
0.0168146
0.00184802
-0.0197931
-0.0392553
-0.0470464
-0.0343192
0.00551455
0.0738714
0.166184
0.274667
0.391109
0.507258
0.615141
0.709143
0.787345
0.85007
0.897992
0.932454
0.956328
0.972905
0.984119
0.990841
0.99444
0.99676
0.998615
0.999583
0.999547
0.999409
0.999852
1.00035
1.00017
0.999653
0.999682
1.00023
1.00041
0.999919
0.999539
0.999891
1.00043
1.0003
0.999693
0.999538
1.0001
1.00053
1.00017
0.999537
0.999567
1.00024
1.0006
1.00009
0.999428
0.999549
1.00032
1.00069
1.00012
0.999349
0.999424
1.00029
1.00082
1.00031
0.999347
0.999162
1.00004
1.00094
1.00074
0.999601
0.998853
0.999425
1.00074
1.00131
1.00041
0.998945
0.998511
0.999692
1.00135
1.00174
1.00032
0.99838
0.997853
0.999438
1.00181
1.00276
1.00119
0.998242
0.996441
0.997572
1.00107
1.00429
1.00446
1.00095
0.995921
0.993033
0.994886
1.00105
1.008
1.01108
1.00735
0.997571
0.98632
0.979948
0.983509
0.99805
1.01947
1.03936
1.04737
1.03423
0.994153
0.926203
0.834155
0.725284
0.608544
0.492758
0.38521
0.290883
0.212302
0.149854
0.102353
0.0676808
0.0433457
0.0268957
0.0161724
0.00942467
0.00532301
0.00291329
0.0015446
0.000792937
0.000393866
0.000189113
8.76545e-05
3.91496e-05
1.68079e-05
6.91277e-06
2.71037e-06
1.00572e-06
3.49103e-07
1.11061e-07
3.10488e-08
6.80319e-09
5.93026e-10
-4.82382e-10
-4.01903e-10
-2.07008e-10
-8.62792e-11
-3.07182e-11
-9.2954e-12
-2.22964e-12
-2.99283e-13
7.67423e-14
8.30443e-14
4.23643e-14
1.63662e-14
5.09854e-15
1.21862e-15
1.56644e-16
-4.22902e-17
-4.19587e-17
-1.97969e-17
-6.8995e-18
-1.83554e-18
-3.12638e-19
1.61456e-20
4.1445e-20
2.1306e-20
7.49236e-21
1.93628e-21
2.98269e-22
-3.19802e-23
-4.6461e-23
-2.14999e-23
-6.81088e-24
-1.49178e-24
-1.24436e-25
7.70511e-26
5.11214e-26
1.88093e-26
4.77124e-27
6.67339e-28
-1.02e-28
-1.10832e-28
-4.53676e-29
-1.23016e-29
-1.96245e-30
1.33027e-31
2.34917e-31
1.00474e-31
2.741e-32
4.33042e-33
-2.97042e-34
-5.02947e-34
-2.07825e-34
-5.37905e-35
-7.44106e-36
1.02803e-36
1.07092e-36
3.98148e-37
9.18322e-38
9.00145e-39
-3.31296e-39
-2.16661e-39
-6.87464e-40
-1.30097e-40
-3.02471e-42
8.71323e-42
3.9601e-42
1.02312e-42
1.33891e-43
-2.04801e-44
-1.85859e-44
-6.22891e-45
-1.21183e-45
-4.29507e-47
7.08108e-47
3.20558e-47
7.92595e-48
9.07163e-49
-2.00248e-49
-1.44622e-49
-4.35479e-50
-7.1355e-51
2.20738e-52
5.82131e-52
2.12567e-52
4.28191e-53
2.08096e-54
-2.10638e-54
-9.49843e-55
-2.21607e-55
-2.08305e-56
6.85169e-57
3.96398e-57
1.03766e-57
1.28292e-58
-1.9884e-59
-1.56924e-59
-4.50837e-60
-6.48993e-61
5.06205e-62
5.97106e-62
1.84599e-62
2.90918e-63
-1.10144e-64
-2.20873e-64
-7.19632e-65
-1.19257e-65
2.03948e-67
8.01473e-67
2.68856e-67
4.5398e-68
-4.14512e-70
-2.86962e-69
-9.66237e-70
-1.6164e-70
1.84062e-72
1.01571e-71
3.34483e-72
5.39246e-73
-1.26358e-74
-3.54676e-74
-1.11437e-74
-1.68052e-75
7.84328e-77
1.2155e-76
3.56319e-77
4.84953e-78
-4.13617e-79
-4.05954e-79
-1.0884e-79
-1.27235e-80
1.90422e-81
1.31103e-81
3.15469e-82
2.91772e-83
-7.84674e-84
-4.0617e-84
-8.59399e-85
-5.25393e-86
2.94084e-86
1.19751e-86
2.16905e-87
4.11497e-89
-1.01186e-88
-3.33092e-89
-4.95057e-90
2.14195e-91
3.21104e-91
8.65071e-92
9.72487e-93
-1.48356e-93
-9.40743e-94
-2.06759e-94
-1.4278e-95
6.144e-96
2.53809e-96
4.44131e-97
4.78915e-99
-2.058e-98
-6.26349e-99
-8.17362e-100
6.87262e-101
5.979e-101
1.39485e-101
1.1265e-102
-3.48909e-103
-1.5404e-103
-2.7279e-104
-4.18424e-106
1.17729e-105
3.52785e-106
4.39476e-107
-4.22452e-108
-3.24152e-108
-7.08511e-109
-4.6655e-110
1.98619e-110
7.65178e-111
1.1985e-111
-2.08462e-113
-6.0447e-113
-1.55859e-113
-1.50981e-114
2.93687e-115
1.47605e-115
2.67229e-116
6.02581e-118
-1.02882e-117
-3.02445e-118
-3.52803e-119
3.93926e-120
2.5971e-120
5.15399e-121
2.27609e-122
-1.64283e-122
-5.30158e-123
-6.78522e-124
5.11346e-125
4.24428e-125
8.83458e-126
4.78127e-127
-2.5199e-127
-8.51507e-128
-1.12301e-128
7.07011e-130
6.51628e-130
1.36427e-130
7.5022e-132
-3.76614e-132
-1.26216e-132
-1.62608e-133
1.10579e-134
9.43918e-135
1.90742e-135
9.09177e-137
-5.48645e-137
-1.7286e-137
-2.06098e-138
1.87051e-139
1.28676e-139
2.40971e-140
7.69357e-142
-7.69585e-142
-2.17853e-142
-2.25199e-143
3.12031e-144
1.63763e-144
2.7259e-145
1.65569e-147
-1.0202e-146
-2.50415e-147
-2.0313e-148
4.81456e-149
1.9231e-149
2.70958e-150
-9.43168e-152
-1.25368e-151
-2.58839e-152
-1.32408e-153
6.66904e-154
2.05386e-154
2.27841e-155
-2.391e-156
-1.40321e-156
-2.35286e-157
-2.21357e-159
8.18674e-159
1.95925e-159
1.47482e-160
-3.81158e-161
-1.40672e-161
-1.80734e-162
1.01316e-163
8.83629e-164
1.62732e-164
4.80231e-166
-4.76502e-166
-1.23926e-166
-1.06808e-167
2.03079e-168
8.30903e-169
1.125e-169
-4.42454e-171
-4.93781e-171
-9.32945e-172
-3.2287e-173
2.54858e-173
6.7027e-174
5.79071e-175
-1.05872e-175
-4.30111e-176
-5.68499e-177
2.4638e-178
2.47876e-178
4.49976e-179
1.23649e-180
-1.28156e-180
-2.38435e-181
)
;

boundaryField
{
    sides
    {
        type            zeroGradient;
    }
    empty
    {
        type            empty;
    }
}


// ************************************************************************* //
