/*--------------------------------*- C++ -*----------------------------------*\
| =========                 |                                                 |
| \\      /  F ield         | OpenFOAM: The Open Source CFD Toolbox           |
|  \\    /   O peration     | Version:  2312                                  |
|   \\  /    A nd           | Website:  www.openfoam.com                      |
|    \\/     M anipulation  |                                                 |
\*---------------------------------------------------------------------------*/
FoamFile
{
    version     2.0;
    format      ascii;
    arch        "LSB;label=32;scalar=64";
    class       volScalarField;
    location    "3.8";
    object      T;
}
// * * * * * * * * * * * * * * * * * * * * * * * * * * * * * * * * * * * * * //

dimensions      [0 0 0 1 0 0 0];

internalField   nonuniform List<scalar> 
1000
(
0
0
0
0
0
0
0
0
0
0
0
0
0
0
0
0
0
0
0
0
0
0
0
0
0
0
0
0
0
0
0
0
0
0
0
0
0
0
0
0
0
0
0
0
0
0
0
0
0
0
0
0
0
0
0
0
0
0
0
0
0
0
0
0
0
0
0
0
0
0
0
0
0
0
0
0
0
0
0
0
0
0
0
0
0
0
0
0
0
0
0
0
0
0
0
0
0
0
0
0
0
0
0
0
0
0
0
0
0
0
0
0
0
0
0
0
0
0
0
0
0
0
0
0
0
0
0
0
0
0
0
0
0
0
0
0
0
0
0
0
0
0
0
0
0
0
0
0
0
0
0
0
0
0
0
0
0
0
0
0
0
0
0
0
0
0
0
0
0
0
0
0
0
0
0
0
0
0
0
0
0
0
0
0
0
0
0
0
0
0
0
0
0
0
0
0
0
0
0
0
0
0
0
0
0
0
0
0
0
0
0
0
0
0
0
0
0
0
0
0
0
0
0
0
0
0
0
0
0
0
0
0
0
0
0
0
0
0
0
0
0
0
0
0
0
0
0
0
0
0
0
0
0
0
0
0
0
0
0
0
0
0
0
0
0
0
0
0
0
0
0
0
0
0
0
0
0
0
0
0
0
0
0
0
0
0
0
0
0
0
0
0
0
0
0
0
0
0
0
0
0
0
0
0
0
0
0
0
0
0
0
0
0
0
0
0
0
0
0
0
0
0
0
0
0
0
0
0
0
0
0
0
0
0
0
0
0
0
0
0
0
0
0
0
0
0
0
0
0
0
0
0
0
0
0
0
0
0
0
0
0
0
0
0
0
0
0
0
0
0
0
0
0
0
0
0
0
0
0
0
0
0
0
0
0
0
0
0
0
0
0
0
0
0
0
0
0
0
0
0
0
0
0
0
0
0
0
0
0
0
0
0
0
0
0
0
0
0
0
0
0
0
0
0
0
0
0
0
0
0
0
0
0
0
0
0
0
0
0
0
0
0
0
0
0
0
0
0
0
0
3.08497e-109
7.49086e-107
9.09711e-105
7.36724e-103
4.47598e-101
2.17612e-99
8.81893e-98
3.06425e-96
9.3188e-95
2.51979e-93
6.13385e-92
1.35778e-90
2.75587e-89
5.16471e-88
8.99021e-87
1.461e-85
2.22651e-84
3.19442e-83
4.32968e-82
5.56108e-81
6.78746e-80
7.89201e-79
8.76165e-78
9.30679e-77
9.47658e-76
9.26609e-75
8.71423e-74
7.89392e-73
6.89736e-72
5.82043e-71
4.74926e-70
3.75126e-69
2.87119e-68
2.13159e-67
1.5364e-66
1.07606e-65
7.32916e-65
4.85843e-64
3.13673e-63
1.97378e-62
1.21129e-61
7.2543e-61
4.24228e-60
2.42385e-59
1.35379e-58
7.39532e-58
3.95313e-57
2.06874e-56
1.06036e-55
5.32555e-55
2.62196e-54
1.26593e-53
5.99628e-53
2.78743e-52
1.27213e-51
5.70183e-51
2.51069e-50
1.08645e-49
4.62162e-49
1.93321e-48
7.95401e-48
3.21988e-47
1.28278e-46
5.03086e-46
1.94274e-45
7.38886e-45
2.76843e-44
1.02207e-43
3.71895e-43
1.33396e-42
4.7178e-42
1.64551e-41
5.66123e-41
1.92157e-40
6.436e-40
2.12751e-39
6.94222e-39
2.23652e-38
7.11489e-38
2.23541e-37
6.93755e-37
2.12709e-36
6.44411e-36
1.9293e-35
5.70902e-35
1.66997e-34
4.82951e-34
1.38103e-33
3.90537e-33
1.0923e-32
3.02201e-32
8.27136e-32
2.23995e-31
6.00247e-31
1.59186e-30
4.1784e-30
1.08566e-29
2.79258e-29
7.11198e-29
1.79347e-28
4.47877e-28
1.10772e-27
2.71364e-27
6.58513e-27
1.5831e-26
3.77074e-26
8.8993e-26
2.08131e-25
4.82398e-25
1.10816e-24
2.52325e-24
5.69534e-24
1.27442e-23
2.82733e-23
6.21934e-23
1.35659e-22
2.93443e-22
6.29511e-22
1.33942e-21
2.82681e-21
5.918e-21
1.22908e-20
2.53247e-20
5.1772e-20
1.05018e-19
2.11385e-19
4.22239e-19
8.37035e-19
1.64686e-18
3.21606e-18
6.23407e-18
1.19957e-17
2.29147e-17
4.34571e-17
8.18255e-17
1.52976e-16
2.83983e-16
5.23497e-16
9.58331e-16
1.74228e-15
3.14591e-15
5.64186e-15
1.005e-14
1.7783e-14
3.12575e-14
5.45807e-14
9.46848e-14
1.63191e-13
2.79455e-13
4.75493e-13
8.03922e-13
1.35064e-12
2.25499e-12
3.7415e-12
6.16966e-12
1.01114e-11
1.64708e-11
2.66679e-11
4.29193e-11
6.86633e-11
1.092e-10
1.72648e-10
2.71371e-10
4.24074e-10
6.58894e-10
1.01789e-09
1.56356e-09
2.38821e-09
3.62738e-09
5.47886e-09
8.22965e-09
1.22937e-08
1.82645e-08
2.69882e-08
3.96641e-08
5.79819e-08
8.43089e-08
1.21943e-07
1.75451e-07
2.51124e-07
3.57574e-07
5.06529e-07
7.13868e-07
1.00097e-06
1.39646e-06
1.93845e-06
2.67738e-06
3.67971e-06
5.03242e-06
6.84878e-06
9.27549e-06
1.25015e-05
1.67687e-05
2.23855e-05
2.97423e-05
3.93312e-05
5.17688e-05
6.78234e-05
8.84474e-05
0.000114815
0.000148365
0.000190853
0.000244407
0.000311592
0.000395487
0.000499762
0.000628771
0.00078765
0.000982423
0.00122011
0.00150888
0.0018581
0.00227856
0.00278254
0.00338396
0.00409848
0.00494367
0.00593907
0.00710627
0.00846902
0.0100532
0.0118871
0.0140008
0.0164267
0.0191994
0.0223549
0.0259312
0.0299676
0.0345043
0.0395824
0.0452432
0.0515277
0.0584764
0.0661284
0.074521
0.0836888
0.0936635
0.104473
0.116141
0.128686
0.142121
0.156453
0.171683
0.187804
0.204802
0.222657
0.241339
0.260814
0.281038
0.30196
0.323524
0.345666
0.368316
0.391401
0.414842
0.438558
0.462462
0.48647
0.510494
0.534447
0.558244
0.5818
0.605035
0.627872
0.650237
0.672064
0.69329
0.713861
0.733725
0.752842
0.771176
0.788697
0.805386
0.821226
0.83621
0.850337
0.863609
0.876037
0.887636
0.898425
0.908426
0.917667
0.926177
0.933988
0.941134
0.947651
0.953574
0.958939
0.963784
0.968145
0.972057
0.975555
0.978672
0.98144
0.983891
0.986052
0.98795
0.989611
0.991057
0.992311
0.99339
0.994312
0.995092
0.995742
0.996275
0.996699
0.997021
0.997246
0.997376
0.997414
0.997358
0.997204
0.996947
0.99658
0.996093
0.995473
0.994707
0.993776
0.992663
0.991344
0.989796
0.987991
0.985901
0.983495
0.980738
0.977595
0.974029
0.970001
0.965471
0.960398
0.954741
0.94846
0.941514
0.933864
0.925473
0.916307
0.906333
0.895524
0.883857
0.871312
0.857878
0.843546
0.828316
0.812196
0.795198
0.777343
0.75866
0.739186
0.718962
0.69804
0.676476
0.654334
0.631684
0.608599
0.585158
0.561442
0.537538
0.51353
0.489506
0.465553
0.441756
0.4182
0.394965
0.372128
0.349763
0.327936
0.30671
0.286139
0.266275
0.247158
0.228824
0.211303
0.194614
0.178774
0.16379
0.149663
0.136391
0.123963
0.112364
0.101575
0.0915738
0.0823328
0.0738225
0.066011
0.0588643
0.0523473
0.0464238
0.0410571
0.0362107
0.0318482
0.0279339
0.0244328
0.0213114
0.0185373
0.0160796
0.0139092
0.0119983
0.0103213
0.00885416
0.0075745
0.00646187
0.00549742
0.004664
0.00394601
0.00332933
0.00280129
0.00235051
0.00196684
0.00164128
0.00136585
0.00113353
0.000938153
0.000774331
0.000637373
0.000523211
0.000428329
0.000349703
0.000284736
0.000231212
0.000187242
0.000151226
0.000121809
9.78514e-05
7.83952e-05
6.26397e-05
4.99172e-05
3.96728e-05
3.14472e-05
2.48609e-05
1.96021e-05
1.54149e-05
1.20902e-05
9.45772e-06
7.379e-06
5.74212e-06
4.45669e-06
3.45001e-06
2.66378e-06
2.0514e-06
1.57572e-06
1.20722e-06
9.22514e-07
7.03145e-07
5.34569e-07
4.0537e-07
3.06614e-07
2.31328e-07
1.74084e-07
1.30675e-07
9.78428e-08
7.30752e-08
5.44403e-08
4.04558e-08
2.99886e-08
2.21742e-08
1.63553e-08
1.20335e-08
8.83177e-09
6.46595e-09
4.72223e-09
3.44029e-09
2.50022e-09
1.81259e-09
1.31088e-09
9.45732e-10
6.80644e-10
4.88677e-10
3.50005e-10
2.50082e-10
1.78257e-10
1.26757e-10
8.99201e-11
6.36368e-11
4.49291e-11
3.16458e-11
2.22371e-11
1.5589e-11
1.09027e-11
7.60729e-12
5.29554e-12
3.6777e-12
2.54819e-12
1.76148e-12
1.21483e-12
8.35897e-13
5.73836e-13
3.93029e-13
2.68574e-13
1.8311e-13
1.24557e-13
8.45347e-14
5.72422e-14
3.86736e-14
2.60694e-14
1.75336e-14
1.17661e-14
7.87813e-15
5.2631e-15
3.50826e-15
2.33332e-15
1.54844e-15
1.02531e-15
6.77414e-16
4.46579e-16
2.93757e-16
1.92808e-16
1.26274e-16
8.25195e-17
5.38089e-17
3.50114e-17
2.27314e-17
1.47266e-17
9.52022e-18
6.14126e-18
3.9531e-18
2.53916e-18
1.62748e-18
1.04092e-18
6.64354e-19
4.23119e-19
2.68911e-19
1.70545e-19
1.07934e-19
6.81659e-20
4.29604e-20
2.70187e-20
1.69573e-20
1.06206e-20
6.63805e-21
4.14034e-21
2.57714e-21
1.60084e-21
9.92351e-22
6.13898e-22
3.79001e-22
2.33508e-22
1.43576e-22
8.81011e-23
5.39515e-23
3.29724e-23
2.01106e-23
1.22413e-23
7.43639e-24
4.50847e-24
2.72792e-24
1.64729e-24
9.92771e-25
5.9713e-25
3.58453e-25
2.14754e-25
)
;

boundaryField
{
    sides
    {
        type            zeroGradient;
    }
    empty
    {
        type            empty;
    }
}


// ************************************************************************* //
