/*--------------------------------*- C++ -*----------------------------------*\
| =========                 |                                                 |
| \\      /  F ield         | OpenFOAM: The Open Source CFD Toolbox           |
|  \\    /   O peration     | Version:  2312                                  |
|   \\  /    A nd           | Website:  www.openfoam.com                      |
|    \\/     M anipulation  |                                                 |
\*---------------------------------------------------------------------------*/
FoamFile
{
    version     2.0;
    format      ascii;
    arch        "LSB;label=32;scalar=64";
    class       volScalarField;
    location    "0.5";
    object      T;
}
// * * * * * * * * * * * * * * * * * * * * * * * * * * * * * * * * * * * * * //

dimensions      [0 0 0 1 0 0 0];

internalField   nonuniform List<scalar> 
1000
(
0
0
0
0
0
0
0
0
0
0
0
0
0
0
0
0
0
0
0
0
0
0
0
0
0
0
0
0
0
0
0
0
0
0
0
0
0
0
0
0
0
0
0
0
0
0
0
0
0
0
0
0
0
0
0
0
0
0
0
0
0
0
0
0
0
0
0
0
0
0
0
0
0
0
0
0
0
0
0
0
0
0
0
0
0
0
0
0
0
0
0
0
0
0
0
0
0
0
0
0
0
0
0
0
0
0
0
0
0
0
0
0
0
0
0
0
0
0
0
0
0
0
0
0
0
0
0
0
0
0
0
0
0
0
0
0
0
0
0
0
0
0
0
0
0
0
0
0
0
0
0
0
0
0
0
0
0
0
0
0
0
0
0
0
0
0
0
0
0
0
0
0
0
0
0
0
0
0
0
0
0
0
0
0
0
0
0
0
0
0
0
0
0
0
0
0
0
0
0
0
0
0
0
0
0
0
0
0
0
0
0
0
0
0
0
0
0
0
0
0
0
0
0
0
0
0
0
0
0
0
0
0
0
0
0
0
0
0
0
0
0
0
0
0
0
0
0
0
0
0
0
0
0
0
0
0
0
0
0
0
0
0
0
0
0
0
0
0
0
0
0
0
0
0
0
0
0
0
0
0
0
0
0
0
0
0
0
0
0
0
0
0
0
0
0
0
0
0
0
0
0
0
0
0
0
0
0
0
0
0
0
0
0
0
0
0
0
0
0
0
0
0
0
0
0
0
0
0
0
0
0
0
0
0
0
0
0
0
0
0
0
0
0
0
0
0
0
0
0
0
0
0
0
0
0
0
0
0
0
0
0
0
0
0
0
0
0
0
0
0
0
0
0
0
0
0
0
0
0
0
0
0
0
0
0
0
0
0
0
0
0
0
0
0
0
0
0
0
0
0
0
0
0
0
0
-3.04564e-32
2.57326e-23
-5.61816e-19
6.60979e-17
-6.42765e-16
2.04439e-15
-4.18206e-15
7.09326e-15
-9.2862e-15
7.4994e-15
6.50955e-15
-4.61761e-14
1.12959e-13
-1.7729e-13
1.58499e-13
1.03865e-13
-7.40906e-13
1.5118e-12
-1.53433e-12
-8.25096e-13
6.38051e-12
-1.15321e-11
6.78291e-12
1.8687e-11
-5.37906e-11
5.07486e-11
6.0888e-11
-2.41463e-10
2.26562e-10
3.09395e-10
-1.04574e-09
6.24911e-10
1.91648e-09
-3.93099e-09
-5.42912e-10
1.06405e-08
-9.37222e-09
-1.83882e-08
3.90876e-08
1.59637e-08
-1.07811e-07
2.51031e-08
2.54684e-07
-1.8174e-07
-5.48099e-07
6.12986e-07
1.15257e-06
-1.6203e-06
-2.56066e-06
3.6849e-06
6.27708e-06
-7.27222e-06
-1.61021e-05
1.10005e-05
4.04976e-05
-4.54579e-06
-9.22677e-05
-4.74796e-05
0.000169556
0.00022704
-0.000154889
-0.000631527
-0.000318745
0.000981956
0.00179116
0.000269089
-0.00339298
-0.00519278
-0.00115978
0.00871785
0.0165025
0.0117454
-0.0107092
-0.0443874
-0.0660908
-0.0528791
0.0103818
0.128858
0.290205
0.4697
0.640151
0.780973
0.882807
0.946968
0.981518
0.996524
0.999995
1
1
1
1
1
1
1
1
1
1
1
1
1
1
1
1
1
1
1
1
1
1
1
1
1
1
1
1
1
1
1
1
1
1
1
1
1
1
1
1
1
1
1
1
1
1
1
1
1
1
1
1
1
1
1
1
1
1
0.999999
0.999999
1
1
0.999996
0.999994
1.00001
1.00002
0.999988
0.99996
1.00001
1.00009
1.00004
0.999826
0.999776
1.00016
1.00064
1.00032
0.999009
0.998199
0.999728
1.0034
1.0052
1.00116
0.991278
0.9835
0.988277
1.01074
1.0444
1.06607
1.05278
0.989429
0.870891
0.709533
0.530073
0.359685
0.218929
0.117147
0.0530177
0.0184823
0.003478
6.34172e-06
6.46285e-08
4.11061e-09
2.61244e-10
1.65883e-11
1.05249e-12
6.6838e-14
4.5039e-15
2.44385e-16
1.73514e-16
1.18955e-16
8.23715e-17
5.88116e-17
4.23521e-17
3.01893e-17
2.11437e-17
1.45351e-17
9.82045e-18
6.533e-18
4.2865e-18
2.77776e-18
1.77956e-18
1.12775e-18
7.07163e-19
4.38783e-19
2.69371e-19
1.6358e-19
9.82396e-20
5.8333e-20
3.42394e-20
1.98634e-20
1.13879e-20
6.45165e-21
3.61172e-21
1.99789e-21
1.09208e-21
5.89895e-22
3.14889e-22
1.66123e-22
8.66208e-23
4.46449e-23
2.27465e-23
1.14575e-23
5.70617e-24
2.81008e-24
1.36854e-24
6.59188e-25
3.14067e-25
1.48028e-25
6.90285e-26
3.18509e-26
1.45438e-26
6.57271e-27
2.9402e-27
1.30204e-27
5.70871e-28
2.47839e-28
1.06554e-28
4.53719e-29
1.9137e-29
7.99604e-30
3.31011e-30
1.35776e-30
5.51904e-31
2.22336e-31
8.87784e-32
3.514e-32
1.37891e-32
5.36483e-33
2.06967e-33
7.91798e-34
3.00426e-34
1.1306e-34
4.22057e-35
1.56301e-35
5.74271e-36
2.09352e-36
7.57315e-37
2.71865e-37
9.68598e-38
3.42515e-38
1.20226e-38
4.18921e-39
1.44915e-39
4.9771e-40
1.69727e-40
5.74739e-41
1.9327e-41
6.45452e-42
2.14091e-42
7.05339e-43
2.30829e-43
7.50419e-44
2.42363e-44
7.77691e-45
2.47942e-45
7.85462e-46
2.47261e-46
7.73515e-47
2.40486e-47
7.43091e-48
2.28219e-48
6.96695e-49
2.11416e-49
6.37767e-50
1.91265e-50
5.70276e-51
1.69056e-51
4.98303e-52
1.46048e-52
4.25658e-53
1.23369e-53
3.55597e-54
1.01937e-54
2.90635e-55
8.24193e-56
2.32484e-56
6.52318e-57
1.82074e-57
5.05563e-58
1.39657e-58
3.83819e-59
1.04951e-59
2.85534e-60
7.72965e-61
2.08214e-61
5.58116e-62
1.48875e-62
3.95199e-63
1.04406e-63
2.74514e-64
7.18376e-65
1.87112e-65
4.85097e-66
1.25184e-66
3.21572e-67
8.22303e-68
2.09326e-68
5.30479e-69
1.33838e-69
3.36181e-70
8.40742e-71
2.09345e-71
5.1902e-72
1.28128e-72
3.14959e-73
7.70952e-74
1.87922e-74
4.5616e-75
1.10271e-75
2.65471e-76
6.36505e-77
1.51994e-77
3.61496e-78
8.56337e-79
2.02051e-79
4.74861e-80
1.11166e-80
2.59231e-81
6.02178e-82
1.39347e-82
3.21228e-83
7.37709e-84
1.68781e-84
3.84717e-85
8.73666e-86
1.97674e-86
4.45617e-87
1.00091e-87
2.24004e-88
4.99525e-89
1.10996e-89
2.45765e-90
5.42252e-91
1.19223e-91
2.61222e-92
5.70369e-93
1.24111e-93
2.69142e-94
5.81673e-95
1.25289e-95
2.6896e-96
5.75464e-97
1.22718e-97
2.60839e-98
5.52604e-99
1.16693e-99
2.45624e-100
5.15349e-101
1.07782e-101
2.24704e-102
4.66988e-103
9.67472e-104
1.9981e-104
4.11385e-105
8.44387e-106
1.72784e-106
3.52487e-107
7.16913e-108
1.45372e-108
2.93898e-109
5.92406e-110
1.19057e-110
2.38569e-111
4.76651e-112
9.49562e-113
1.88621e-113
3.73598e-114
7.37866e-115
1.45316e-115
2.85379e-116
5.58864e-117
1.09138e-117
2.12537e-118
4.12755e-119
7.99381e-120
1.54392e-120
2.97382e-121
5.71249e-122
1.09438e-122
2.09095e-123
3.9844e-124
7.57233e-125
1.43533e-125
2.71351e-126
5.11658e-127
9.62276e-128
1.80508e-128
3.37737e-129
6.30304e-130
1.17332e-130
2.17864e-131
4.03515e-132
7.45497e-133
1.37389e-133
2.52568e-134
4.63165e-135
8.4728e-136
1.54617e-136
2.81471e-137
5.11164e-138
9.26065e-139
1.67372e-139
3.01781e-140
5.42839e-141
9.7415e-142
1.74406e-142
3.11519e-143
5.55134e-144
9.86976e-145
1.75072e-145
3.09836e-146
5.4709e-147
9.63829e-148
1.69419e-148
2.97131e-149
5.19952e-150
9.07846e-151
1.58161e-151
2.74936e-152
4.76881e-153
8.25354e-154
1.42537e-154
2.45627e-155
4.22366e-156
7.24724e-157
1.24088e-157
2.12014e-158
3.61479e-159
6.15018e-160
1.0442e-160
1.76919e-161
2.99133e-162
5.04729e-163
8.49882e-164
1.42814e-164
2.39496e-165
4.00817e-166
6.69448e-167
1.11587e-167
1.85628e-168
3.08183e-169
5.10636e-170
8.44418e-171
1.39364e-171
2.29558e-172
3.7739e-173
6.1922e-174
1.01405e-174
1.65746e-175
2.70391e-176
4.40266e-177
7.15506e-178
1.16062e-178
1.87911e-179
3.03668e-180
4.8982e-181
7.88619e-182
1.26734e-182
2.03293e-183
3.25503e-184
5.20228e-185
8.29933e-186
1.32162e-186
2.10081e-187
3.33339e-188
5.27971e-189
8.34759e-190
1.31747e-190
2.07566e-191
3.26443e-192
5.12504e-193
8.03211e-194
1.25663e-194
1.96262e-195
3.05996e-196
4.76267e-197
7.40019e-198
1.14788e-198
1.77752e-199
2.74789e-200
4.24086e-201
6.53403e-202
1.00504e-202
1.54336e-203
2.36609e-204
3.62142e-205
5.53369e-206
8.4419e-207
1.28576e-207
1.95512e-208
2.96815e-209
4.49884e-210
6.80799e-211
1.02859e-211
1.55159e-212
2.33682e-213
3.51387e-214
5.27552e-215
7.90795e-216
1.18355e-216
1.76861e-217
2.6388e-218
3.93108e-219
5.84724e-220
8.6841e-221
1.28777e-221
1.90673e-222
2.81894e-223
4.16128e-224
6.13361e-225
9.02727e-226
1.32663e-226
1.94669e-227
2.85236e-228
4.17321e-229
6.09677e-230
8.89393e-231
1.29555e-231
1.88446e-232
2.73709e-233
3.96978e-234
5.74938e-235
8.31484e-236
1.20079e-236
1.73167e-237
2.49372e-238
3.58608e-239
5.14969e-240
7.38473e-241
1.05751e-241
1.51226e-242
2.15959e-243
3.07976e-244
4.38596e-245
6.2376e-246
8.85888e-247
1.25646e-247
1.77964e-248
2.51726e-249
3.55581e-250
5.01613e-251
7.06673e-252
9.94238e-253
1.39697e-253
1.96023e-254
2.747e-255
3.84448e-256
5.37341e-257
7.5006e-258
1.04563e-258
1.45579e-259
2.02422e-260
2.811e-261
3.89857e-262
5.40004e-263
7.47026e-264
1.03211e-264
1.42418e-265
1.96271e-266
2.7015e-267
3.71373e-268
5.09886e-269
6.99194e-270
9.57601e-271
1.30989e-271
1.78959e-272
2.44195e-273
3.32807e-274
)
;

boundaryField
{
    sides
    {
        type            zeroGradient;
    }
    empty
    {
        type            empty;
    }
}


// ************************************************************************* //
