/*--------------------------------*- C++ -*----------------------------------*\
| =========                 |                                                 |
| \\      /  F ield         | OpenFOAM: The Open Source CFD Toolbox           |
|  \\    /   O peration     | Version:  2312                                  |
|   \\  /    A nd           | Website:  www.openfoam.com                      |
|    \\/     M anipulation  |                                                 |
\*---------------------------------------------------------------------------*/
FoamFile
{
    version     2.0;
    format      ascii;
    arch        "LSB;label=32;scalar=64";
    class       volScalarField;
    location    "2";
    object      T;
}
// * * * * * * * * * * * * * * * * * * * * * * * * * * * * * * * * * * * * * //

dimensions      [0 0 0 1 0 0 0];

internalField   nonuniform List<scalar> 
1000
(
0
0
0
0
0
0
0
0
0
0
0
0
0
0
0
0
0
0
0
0
0
0
0
0
0
0
0
0
0
0
0
0
0
0
0
0
0
0
0
0
0
0
0
0
0
0
0
0
0
0
0
0
0
0
0
0
0
0
0
0
0
0
0
0
0
0
0
0
0
0
0
0
0
0
0
0
0
0
0
0
0
0
0
0
0
0
0
0
0
0
0
0
0
0
0
0
0
0
0
0
0
0
0
0
0
0
0
0
0
0
0
0
0
0
0
0
0
0
0
0
0
0
0
0
0
0
0
0
0
0
0
0
0
0
0
0
0
0
0
0
0
0
0
0
0
0
0
0
0
0
0
0
0
0
0
0
0
0
0
0
0
0
0
0
0
0
0
0
0
0
0
0
0
0
0
0
0
0
0
0
0
0
0
0
0
0
0
0
0
0
0
0
0
0
0
0
0
0
0
0
0
0
0
0
0
0
0
0
0
0
0
0
0
0
0
0
0
0
0
0
0
0
0
0
0
0
0
0
0
0
0
0
0
0
0
0
0
0
0
0
0
0
0
0
0
0
0
0
0
0
0
0
0
0
0
0
0
0
0
0
0
0
0
0
0
0
0
0
0
0
0
0
0
0
0
0
0
0
0
0
0
0
0
0
0
0
0
0
0
0
0
0
0
0
0
0
0
0
0
0
0
0
0
0
0
0
0
0
0
0
0
0
0
0
0
0
0
0
0
0
0
0
0
0
0
0
0
0
0
0
0
0
0
0
0
0
0
0
0
0
0
0
0
0
0
0
0
0
0
0
0
0
0
0
0
0
0
0
0
0
0
0
0
0
0
0
0
0
0
0
0
0
0
0
0
0
0
0
0
0
0
0
0
0
0
0
0
0
0
0
0
0
0
0
0
0
0
0
0
0
0
0
0
0
3.8478e-88
-2.58301e-72
1.55208e-64
-9.10534e-61
-2.8641e-59
9.26102e-58
8.83017e-56
3.21606e-54
7.77042e-53
1.42942e-51
2.13561e-50
2.69175e-49
2.93464e-48
2.81619e-47
2.40871e-46
1.85267e-45
1.28927e-44
8.14602e-44
4.67678e-43
2.4331e-42
1.13739e-41
4.68299e-41
1.61536e-40
3.94425e-40
-1.55769e-41
-8.29341e-39
-7.01108e-38
-4.27595e-37
-2.23148e-36
-1.053e-35
-4.60791e-35
-1.8953e-34
-7.38343e-34
-2.73581e-33
-9.6629e-33
-3.25643e-32
-1.0475e-31
-3.21731e-31
-9.44319e-31
-2.65371e-30
-7.16613e-30
-1.87104e-29
-4.76672e-29
-1.19883e-28
-3.01208e-28
-7.62071e-28
-1.94124e-27
-4.93277e-27
-1.23086e-26
-2.96142e-26
-6.74232e-26
-1.4235e-25
-2.71459e-25
-4.46817e-25
-5.6762e-25
-3.10418e-25
1.02234e-24
4.4209e-24
1.0068e-23
1.34318e-23
-4.56041e-24
-9.68405e-23
-3.78631e-22
-1.04866e-21
-2.34685e-21
-4.31607e-21
-6.12875e-21
-4.66155e-21
7.86896e-21
4.66928e-20
1.35341e-19
2.9868e-19
5.37099e-19
7.66134e-19
7.07486e-19
-2.65275e-19
-3.2685e-18
-9.867e-18
-2.14676e-17
-3.74956e-17
-5.2022e-17
-4.83409e-17
1.30467e-17
2.20303e-16
6.96548e-16
1.35937e-15
1.18299e-15
-3.14721e-15
-8.41141e-15
-2.61663e-15
1.97425e-14
2.34076e-14
-2.5302e-14
-7.16036e-14
5.34904e-17
1.56643e-13
1.14418e-13
-2.49716e-13
-4.20073e-13
1.90075e-13
1.024e-12
4.28218e-13
-1.82933e-12
-2.31529e-12
1.67847e-12
6.30876e-12
2.16756e-12
-1.10473e-11
-1.42374e-11
8.12733e-12
3.73411e-11
1.99643e-11
-5.54612e-11
-9.50924e-11
9.99688e-12
2.0428e-10
1.95298e-10
-1.83738e-10
-6.00754e-10
-3.12139e-10
8.36815e-10
1.57291e-09
2.66644e-10
-2.85792e-09
-3.89226e-09
5.58586e-10
8.62117e-09
9.44307e-09
-3.63976e-09
-2.3881e-08
-2.39149e-08
1.13535e-08
6.37472e-08
6.44801e-08
-2.55059e-08
-1.65354e-07
-1.82017e-07
2.65135e-08
3.99104e-07
5.37801e-07
1.00499e-07
-8.70819e-07
-1.52679e-06
-8.46785e-07
1.47495e-06
3.9958e-06
3.81543e-06
-8.03995e-07
-8.57009e-06
-1.29223e-05
-7.12627e-06
1.10192e-05
3.31767e-05
3.76205e-05
1.11952e-05
-4.85486e-05
-0.000111757
-0.000115626
-3.12661e-05
0.000150988
0.000353694
0.000407656
0.000206418
-0.000307991
-0.00100348
-0.00148235
-0.00131045
-0.000212257
0.00187643
0.00440649
0.00612704
0.00570669
0.00225113
-0.00485455
-0.0150287
-0.0259158
-0.0332076
-0.0323568
-0.0205464
0.00638126
0.0511011
0.114228
0.194116
0.287084
0.387996
0.491061
0.590668
0.682102
0.762015
0.828607
0.881548
0.921687
0.950682
0.970591
0.983541
0.991474
0.996011
0.998397
0.999516
0.999941
1
1
1
1
1
1
1
1
1
1
1
1
1
1
1
1
1
1
1
1
1
1
1
1
1
1
1
1
1
1
1
1
1
1
1
1
1
1
1
0.999999
1
1
1
1
0.999999
0.999996
0.999996
1
1.00001
1.00001
1.00001
0.999989
0.999967
0.999962
0.999989
1.00005
1.00011
1.00012
1.00003
0.999849
0.999647
0.999594
0.999795
1.00031
1.001
1.00148
1.00131
1.00021
0.998123
0.995594
0.993874
0.994296
0.997756
1.00487
1.01504
1.02592
1.03319
1.03233
1.0205
0.993547
0.948804
0.885657
0.805756
0.712781
0.61187
0.508814
0.409221
0.317804
0.237911
0.171336
0.118412
0.0782847
0.0493001
0.0293979
0.0164532
0.00852286
0.00398752
0.00160287
0.000483854
5.85144e-05
3.23133e-16
3.17428e-16
3.1233e-16
3.01436e-16
2.85593e-16
2.65863e-16
2.43331e-16
2.19079e-16
1.94141e-16
1.69454e-16
1.45802e-16
1.23782e-16
1.03797e-16
8.6062e-17
7.06335e-17
5.74441e-17
4.63396e-17
3.71133e-17
2.95347e-17
2.33705e-17
1.83988e-17
1.4418e-17
1.12506e-17
8.74432e-18
6.77081e-18
5.22374e-18
4.01595e-18
3.07668e-18
2.34896e-18
1.78718e-18
1.35505e-18
1.02383e-18
7.70861e-19
5.78339e-19
4.32349e-19
3.22046e-19
2.39011e-19
1.76734e-19
1.30201e-19
9.55613e-20
6.98739e-20
5.08981e-20
3.69344e-20
2.66989e-20
1.92256e-20
1.37906e-20
9.85359e-21
7.01308e-21
4.97186e-21
3.51091e-21
2.46949e-21
1.73013e-21
1.20734e-21
8.39181e-22
5.80975e-22
4.00621e-22
2.75159e-22
1.88237e-22
1.28264e-22
8.70516e-23
5.88474e-23
3.96239e-23
2.65749e-23
1.7753e-23
1.1813e-23
7.82969e-24
5.16925e-24
3.3995e-24
2.22695e-24
1.45319e-24
9.44612e-25
6.11662e-25
3.9455e-25
2.53531e-25
1.62295e-25
1.03498e-25
6.57533e-26
4.16167e-26
2.62415e-26
1.6485e-26
1.03175e-26
6.43353e-27
3.99691e-27
2.47402e-27
1.52578e-27
9.37562e-28
5.74026e-28
3.50181e-28
2.12858e-28
1.28923e-28
7.78072e-29
4.67911e-29
2.80393e-29
1.67432e-29
9.96275e-30
5.90743e-30
3.49061e-30
2.05538e-30
1.20609e-30
7.05282e-31
4.1101e-31
2.38699e-31
1.38155e-31
7.96892e-32
4.58098e-32
2.62451e-32
1.49855e-32
8.5278e-33
4.83666e-33
2.73404e-33
1.54034e-33
8.64947e-34
4.84089e-34
2.70041e-34
1.50143e-34
8.32073e-35
4.59619e-35
2.53059e-35
1.38879e-35
7.59711e-36
4.14247e-36
2.25152e-36
1.21984e-36
6.58781e-37
3.54649e-37
1.90318e-37
1.01809e-37
5.42907e-38
2.88602e-38
1.52938e-38
8.07932e-39
4.25484e-39
2.23381e-39
1.16914e-39
6.10026e-40
3.1732e-40
1.64557e-40
8.50767e-41
4.38515e-41
2.25342e-41
1.15449e-41
5.89694e-42
3.00304e-42
1.52474e-42
7.71858e-43
3.89572e-43
1.96043e-43
9.83632e-44
4.92081e-44
2.45452e-44
1.22075e-44
6.05371e-45
2.99334e-45
1.47582e-45
7.25532e-46
3.55658e-46
1.73845e-46
8.47331e-47
4.1182e-47
1.99586e-47
9.64546e-48
4.64828e-48
2.23379e-48
1.07047e-48
5.11561e-49
2.43787e-49
1.15857e-49
5.49073e-50
2.59504e-50
1.22311e-50
5.74909e-51
2.69494e-51
1.25985e-51
5.87368e-52
2.73106e-52
1.26643e-52
5.85692e-53
2.70144e-53
1.24269e-53
5.70137e-54
2.60883e-54
1.1906e-54
5.4193e-55
2.46027e-55
1.11401e-55
5.03109e-56
2.26626e-56
1.0182e-56
4.56286e-57
2.0395e-57
9.09284e-58
4.04358e-58
1.7936e-58
7.9357e-59
3.50224e-59
1.54174e-59
6.76997e-60
2.96533e-60
1.29562e-60
5.64675e-61
2.45496e-61
1.06467e-61
4.60592e-62
1.9877e-62
8.55698e-63
3.67477e-63
1.57429e-63
6.72797e-64
2.86836e-64
1.21994e-64
5.17602e-65
2.19086e-65
9.2512e-66
3.89714e-66
1.63781e-66
6.86682e-67
2.87225e-67
1.19858e-67
4.98996e-68
2.07258e-68
8.58842e-69
3.55065e-69
1.46453e-69
6.02676e-70
2.47441e-70
1.01359e-70
4.14251e-71
1.68917e-71
6.87221e-72
2.78956e-72
1.12978e-72
4.56536e-73
1.84069e-73
7.40482e-74
2.97221e-74
1.19036e-74
4.75679e-75
1.89666e-75
7.54585e-76
2.99552e-76
1.18655e-76
4.68973e-77
1.84955e-77
7.27846e-78
2.85807e-78
1.11988e-78
4.37856e-79
1.70829e-79
6.65061e-80
2.58366e-80
1.00158e-80
3.87448e-81
1.49563e-81
5.76126e-82
2.21462e-82
8.49511e-83
3.25186e-83
1.24219e-83
4.73526e-84
1.80135e-84
6.83842e-85
2.59071e-85
9.79464e-86
3.69546e-86
1.39143e-86
5.22842e-87
1.96063e-87
7.33741e-88
2.74039e-88
1.02142e-88
3.79952e-89
1.41052e-89
5.22595e-90
1.93235e-90
7.13088e-91
2.62628e-91
9.65339e-92
3.54131e-92
1.29657e-92
4.73779e-93
1.72786e-93
6.28918e-94
2.28474e-94
8.28396e-95
2.99778e-95
1.08274e-95
3.90317e-96
1.40435e-96
5.04319e-97
1.80762e-97
6.46671e-98
2.30907e-98
8.2294e-99
2.9274e-99
1.03939e-99
3.6835e-100
)
;

boundaryField
{
    sides
    {
        type            zeroGradient;
    }
    empty
    {
        type            empty;
    }
}


// ************************************************************************* //
