/*--------------------------------*- C++ -*----------------------------------*\
| =========                 |                                                 |
| \\      /  F ield         | OpenFOAM: The Open Source CFD Toolbox           |
|  \\    /   O peration     | Version:  2312                                  |
|   \\  /    A nd           | Website:  www.openfoam.com                      |
|    \\/     M anipulation  |                                                 |
\*---------------------------------------------------------------------------*/
FoamFile
{
    version     2.0;
    format      ascii;
    arch        "LSB;label=32;scalar=64";
    class       volScalarField;
    location    "1.4";
    object      T;
}
// * * * * * * * * * * * * * * * * * * * * * * * * * * * * * * * * * * * * * //

dimensions      [0 0 0 1 0 0 0];

internalField   nonuniform List<scalar> 
1000
(
0
0
0
0
0
0
0
0
0
0
0
0
0
0
0
0
0
0
0
0
0
0
0
0
0
0
0
0
0
0
0
0
0
0
0
0
0
0
0
0
0
0
0
0
0
0
0
0
0
0
0
0
0
0
0
0
0
0
0
0
0
0
0
0
0
0
0
0
0
0
0
0
0
0
0
0
0
0
0
0
0
0
0
0
0
0
0
0
0
0
0
0
0
0
0
0
0
0
0
0
0
0
0
0
0
0
0
0
0
0
0
0
0
0
0
0
0
0
0
0
0
0
0
0
0
0
0
0
0
0
0
0
0
0
0
0
0
0
0
0
0
0
0
0
0
0
0
0
0
0
0
0
0
0
0
0
0
0
0
0
0
0
0
0
0
0
0
0
0
0
0
0
0
0
0
0
0
0
0
0
0
0
0
0
0
0
0
0
0
0
0
0
0
0
0
0
0
0
0
0
0
0
0
0
0
0
0
0
0
0
0
0
0
0
0
0
0
0
0
0
0
0
0
0
0
0
0
0
0
0
0
0
0
0
0
0
0
0
0
0
0
0
0
0
0
0
0
0
0
0
0
0
0
0
0
0
0
0
0
0
0
0
0
0
0
0
0
0
0
0
0
0
0
0
0
0
0
0
0
0
0
0
0
0
0
0
0
0
0
0
0
0
0
0
0
0
0
0
0
0
0
0
0
0
0
0
0
0
0
0
0
0
0
0
0
0
0
0
0
0
0
0
0
0
0
0
0
0
0
0
0
0
0
0
0
0
0
0
0
0
0
0
0
0
0
0
0
0
0
0
0
0
0
0
0
0
0
0
0
0
0
0
0
0
0
0
0
0
0
0
0
0
0
0
0
0
0
0
0
0
0
0
0
0
0
0
0
0
0
0
0
0
0
0
0
0
0
0
0
0
0
0
0
0
0
0
0
0
0
0
0
0
0
0
0
0
0
0
0
0
0
0
0
0
0
0
0
0
0
0
0
0
0
0
0
0
0
0
0
0
0
0
0
0
0
0
0
0
0
0
1.05282e-40
9.48498e-39
4.27606e-37
1.28623e-35
2.9041e-34
5.24993e-33
7.91543e-32
1.02379e-30
1.15962e-29
1.1685e-28
1.06059e-27
8.75874e-27
6.63607e-26
4.64499e-25
3.02163e-24
1.83613e-23
1.04691e-22
5.62283e-22
2.85463e-21
1.37417e-20
6.28965e-20
2.74412e-19
1.14381e-18
4.56435e-18
1.74704e-17
6.42514e-17
2.27412e-16
7.75787e-16
2.55427e-15
8.1272e-15
2.502e-14
7.46084e-14
2.15724e-13
6.05405e-13
1.65056e-12
4.37558e-12
1.12879e-11
2.83598e-11
6.94426e-11
1.65839e-10
3.8652e-10
8.79751e-10
1.95664e-09
4.25475e-09
9.05089e-09
1.88447e-08
3.84226e-08
7.67529e-08
1.50285e-07
2.88563e-07
5.43572e-07
1.00495e-06
1.82423e-06
3.25255e-06
5.69824e-06
9.81267e-06
1.66155e-05
2.76736e-05
4.5351e-05
7.31501e-05
0.000116167
0.000181686
0.000279936
0.000425028
0.000636091
0.000938606
0.00136592
0.00196091
0.00277775
0.00388365
0.00536054
0.0073064
0.00983627
0.0130826
0.0171947
0.0223375
0.0286892
0.0364373
0.0457737
0.0568893
0.0699666
0.0851721
0.102648
0.122506
0.144815
0.169601
0.196837
0.226441
0.258274
0.292143
0.327801
0.364956
0.403274
0.442393
0.481933
0.521502
0.560716
0.599202
0.636614
0.672637
0.707001
0.739477
0.76989
0.798112
0.824068
0.847726
0.869102
0.888248
0.905248
0.920216
0.933282
0.944593
0.954304
0.962573
0.969556
0.975407
0.98027
0.984279
0.987559
0.990222
0.992367
0.994082
0.995442
0.996513
0.99735
0.998
0.9985
0.998883
0.999173
0.999392
0.999556
0.999678
0.999768
0.999833
0.999881
0.999916
0.999941
0.999959
0.999971
0.99998
0.999986
0.999991
0.999994
0.999996
0.999997
0.999998
0.999999
0.999999
0.999999
0.999999
0.999999
0.999999
0.999998
0.999997
0.999994
0.99999
0.999983
0.999972
0.999955
0.999927
0.999884
0.999818
0.99972
0.999575
0.999364
0.999061
0.998634
0.998039
0.997222
0.996116
0.994639
0.992694
0.990164
0.986917
0.982805
0.977662
0.971311
0.963563
0.954226
0.943111
0.930033
0.914828
0.897352
0.877494
0.855185
0.830399
0.803163
0.773559
0.741726
0.707857
0.672199
0.635044
0.596726
0.557607
0.518067
0.478498
0.439284
0.400798
0.363386
0.327363
0.292999
0.260523
0.23011
0.201888
0.175932
0.152274
0.130898
0.111752
0.0947516
0.0797843
0.0667181
0.0554069
0.045696
0.0374273
0.0304438
0.024593
0.0197304
0.0157209
0.0124407
0.009778
0.00763309
0.00591845
0.0045581
0.00348692
0.00264969
0.00200011
0.00149981
0.00111726
0.000826845
0.000607937
0.000444093
0.000322318
0.000232438
0.000166555
0.00011859
8.39076e-05
5.89967e-05
4.12234e-05
2.86265e-05
1.97567e-05
1.35519e-05
9.2393e-06
6.26109e-06
4.21742e-06
2.82389e-06
1.8796e-06
1.24371e-06
8.18132e-07
5.35048e-07
3.47891e-07
2.24901e-07
1.44561e-07
9.2393e-08
5.87178e-08
3.71072e-08
2.33196e-08
1.45737e-08
9.0578e-09
5.59877e-09
3.44187e-09
2.10447e-09
1.27983e-09
7.74172e-10
4.65813e-10
2.78797e-10
1.6599e-10
9.83122e-11
5.79264e-11
3.3955e-11
1.98017e-11
1.14891e-11
6.63236e-12
3.80943e-12
2.17709e-12
1.23803e-12
7.00539e-13
3.94454e-13
2.21022e-13
1.23243e-13
6.83889e-14
3.77678e-14
2.07578e-14
1.13547e-14
6.18183e-15
3.34979e-15
1.80671e-15
9.6993e-16
5.18306e-16
2.75699e-16
1.45983e-16
7.69473e-17
4.0376e-17
2.10912e-17
1.09683e-17
5.67869e-18
2.92709e-18
1.50216e-18
7.67533e-19
3.90472e-19
1.9779e-19
9.97588e-20
5.01002e-20
2.50542e-20
1.24762e-20
6.18668e-21
3.05501e-21
1.50231e-21
7.35709e-22
3.58808e-22
1.74276e-22
8.43028e-23
4.06147e-23
1.94882e-23
9.31353e-24
4.43325e-24
2.10186e-24
9.92582e-25
4.66896e-25
2.18763e-25
1.02102e-25
4.74693e-26
2.19845e-26
1.01427e-26
4.66153e-27
2.1343e-27
9.73509e-28
4.42374e-28
2.00269e-28
9.03274e-29
4.05896e-29
1.81722e-29
8.10595e-30
3.60258e-30
1.59531e-30
7.03886e-31
3.09453e-31
1.3556e-31
5.91721e-32
2.57371e-32
1.11549e-32
4.81778e-33
2.0735e-33
8.89301e-34
3.80089e-34
1.61891e-34
6.87171e-35
2.90684e-35
1.22546e-35
5.14875e-36
2.15595e-36
8.9974e-37
3.74233e-37
1.55139e-37
6.40999e-38
2.63974e-38
1.08352e-38
4.43296e-39
1.80774e-39
7.34797e-40
2.97713e-40
1.20235e-40
4.84032e-41
1.94238e-41
7.76989e-42
3.0983e-42
1.23159e-42
4.88033e-43
1.92786e-43
7.59198e-44
2.98051e-44
1.16651e-44
4.55151e-45
1.7705e-45
6.86619e-46
2.65473e-46
1.02333e-46
3.93284e-47
1.50695e-47
5.75701e-48
2.19284e-48
8.32791e-49
3.15345e-49
1.1906e-49
4.48204e-50
1.68238e-50
6.29675e-51
2.34994e-51
8.74482e-52
3.24491e-52
1.20065e-52
4.42997e-53
1.62989e-53
5.97987e-54
2.1878e-54
7.98203e-55
2.90409e-55
1.05367e-55
3.81241e-56
1.37563e-56
4.95011e-57
1.77641e-57
6.35759e-58
2.26917e-58
8.07737e-59
2.86752e-59
1.01527e-59
3.58509e-60
1.2626e-60
4.43488e-61
1.55365e-61
5.42858e-62
1.89183e-62
6.5758e-63
2.27975e-63
7.8832e-64
2.71894e-64
9.35365e-65
3.20962e-65
1.09855e-65
3.75043e-66
1.27716e-66
4.33827e-67
1.46993e-67
4.96811e-68
1.67495e-68
5.63296e-69
1.88971e-69
6.32388e-70
2.11108e-70
7.03014e-71
2.33541e-71
7.7394e-72
2.55858e-72
8.43809e-73
2.77616e-73
9.11181e-74
2.98351e-74
9.7458e-75
3.17598e-75
1.03255e-75
3.34907e-76
1.08372e-76
3.49861e-77
1.12684e-77
3.62092e-78
1.16084e-78
3.71299e-79
1.18489e-79
3.77256e-80
1.19841e-80
3.79826e-81
1.2011e-81
3.78962e-82
1.19298e-82
3.7471e-83
1.17432e-83
3.67206e-84
1.14569e-84
3.56669e-85
1.10791e-85
3.43391e-86
1.06199e-86
3.27721e-87
1.00912e-87
3.10054e-88
9.50588e-89
2.90812e-89
8.87764e-90
2.70429e-90
8.22019e-91
2.49337e-91
7.54691e-92
2.27947e-92
6.87042e-93
2.06643e-93
6.20223e-94
1.85767e-94
5.55247e-95
1.65616e-95
4.92972e-96
1.46435e-96
4.34088e-97
1.28416e-97
3.7912e-98
1.11699e-98
3.28427e-99
9.63722e-100
2.82221e-100
8.2481e-101
2.40574e-101
7.00286e-102
2.03441e-102
5.89845e-103
1.70679e-103
4.92905e-104
1.42067e-104
4.0867e-105
1.17328e-105
3.36191e-106
9.6145e-107
2.74426e-107
7.81783e-108
2.22285e-108
6.30814e-109
1.78674e-109
5.05118e-110
1.42527e-110
4.01402e-111
1.12834e-111
3.1658e-112
8.86561e-113
2.47811e-113
6.91388e-114
1.92537e-114
5.35179e-115
1.48484e-115
4.11206e-116
1.13668e-116
3.13633e-117
8.63794e-118
2.37468e-118
6.51645e-119
1.78496e-119
4.88045e-120
1.33201e-120
3.62891e-121
9.8688e-122
2.67902e-122
7.25962e-123
1.96372e-123
5.30243e-124
1.42923e-124
3.84561e-125
1.03291e-125
2.7695e-126
7.41276e-127
1.98062e-127
5.28286e-128
1.40664e-128
3.73893e-129
9.92115e-130
2.62803e-130
6.94954e-131
1.83459e-131
4.83483e-132
1.27199e-132
3.34082e-133
8.75968e-134
2.29293e-134
5.99188e-135
)
;

boundaryField
{
    sides
    {
        type            zeroGradient;
    }
    empty
    {
        type            empty;
    }
}


// ************************************************************************* //
