/*--------------------------------*- C++ -*----------------------------------*\
| =========                 |                                                 |
| \\      /  F ield         | OpenFOAM: The Open Source CFD Toolbox           |
|  \\    /   O peration     | Version:  2312                                  |
|   \\  /    A nd           | Website:  www.openfoam.com                      |
|    \\/     M anipulation  |                                                 |
\*---------------------------------------------------------------------------*/
FoamFile
{
    version     2.0;
    format      ascii;
    arch        "LSB;label=32;scalar=64";
    class       volScalarField;
    location    "0.8";
    object      T;
}
// * * * * * * * * * * * * * * * * * * * * * * * * * * * * * * * * * * * * * //

dimensions      [0 0 0 1 0 0 0];

internalField   nonuniform List<scalar> 
1000
(
0
0
0
0
0
0
0
0
0
0
0
0
0
0
0
0
0
0
0
0
0
0
0
0
0
0
0
0
0
0
0
0
0
0
0
0
0
0
0
0
0
0
0
0
0
0
0
0
0
0
0
0
0
0
0
0
0
0
0
0
0
0
0
0
0
0
0
0
0
0
0
0
0
0
0
0
0
0
0
0
0
0
0
0
0
0
0
0
0
0
0
0
0
0
0
0
0
0
0
0
0
0
0
0
0
0
0
0
0
0
0
0
0
0
0
0
0
0
0
0
0
0
0
0
0
0
0
0
0
0
0
0
0
0
0
0
0
0
0
0
0
0
0
0
0
0
0
0
0
0
2.47033e-323
-1.02272e-321
3.59433e-320
-1.26188e-318
4.40777e-317
-1.53131e-315
5.29111e-314
-1.81831e-312
6.21476e-311
-2.11256e-309
7.14201e-308
-2.40134e-306
8.02981e-305
-2.67037e-303
8.83178e-302
-2.9049e-300
9.50205e-299
-3.09102e-297
9.99955e-296
-3.21699e-294
1.02921e-292
-3.27446e-291
1.03599e-289
-3.25942e-288
1.01975e-286
-3.17259e-285
9.81505e-284
-3.01944e-282
9.23654e-281
-2.80956e-279
8.49782e-278
-2.55572e-276
7.64274e-275
-2.27254e-273
6.71886e-272
-1.97513e-270
5.77305e-269
-1.67773e-267
4.84773e-266
-1.39268e-264
3.97789e-263
-1.12964e-261
3.18937e-260
-8.95248e-259
2.49833e-257
-6.93136e-256
1.91181e-254
-5.24227e-253
1.42903e-251
-3.87257e-250
1.04326e-248
-2.7939e-247
7.4379e-246
-1.96836e-244
5.17805e-243
-1.35403e-241
3.51956e-240
-9.0936e-239
2.33542e-237
-5.9617e-236
1.51267e-234
-3.81487e-233
9.56248e-232
-2.38237e-230
5.89914e-229
-1.45178e-227
3.55092e-226
-8.63177e-225
2.08531e-223
-5.00663e-222
1.19458e-220
-2.83255e-219
6.6745e-218
-1.56291e-216
3.63676e-215
-8.40914e-214
1.93214e-212
-4.4113e-211
1.00075e-209
-2.25585e-208
5.05255e-207
-1.12439e-205
2.48612e-204
-5.46155e-203
1.19204e-201
-2.58485e-200
5.56856e-199
-1.1918e-197
2.534e-196
-5.35233e-195
1.12306e-193
-2.34087e-192
4.84682e-191
-9.96851e-190
2.03651e-188
-4.13255e-187
8.32937e-186
-1.66747e-184
3.31549e-183
-6.54738e-182
1.28413e-180
-2.50125e-179
4.83842e-178
-9.29473e-177
1.77315e-175
-3.35904e-174
6.31884e-173
-1.18032e-171
2.18921e-170
-4.03171e-169
7.37214e-168
-1.3384e-166
2.41244e-165
-4.31708e-164
7.66962e-163
-1.35268e-161
2.3683e-160
-4.11613e-159
7.10128e-158
-1.21609e-156
2.06709e-155
-3.48744e-154
5.8397e-153
-9.70503e-152
1.6007e-150
-2.62008e-149
4.25593e-148
-6.86015e-147
1.09728e-145
-1.74151e-144
2.7425e-143
-4.2851e-142
6.6428e-141
-1.02164e-139
1.5588e-138
-2.3594e-137
3.54257e-136
-5.27621e-135
7.79457e-134
-1.14212e-132
1.6598e-131
-2.39228e-130
3.41944e-129
-4.84692e-128
6.81278e-127
-9.49528e-126
1.31219e-124
-1.7979e-123
2.44228e-122
-3.28899e-121
4.3908e-120
-5.81052e-119
7.62171e-118
-9.90905e-117
1.27682e-115
-1.63049e-114
2.06335e-113
-2.58742e-112
3.21495e-111
-3.95792e-110
4.82744e-109
-5.83307e-108
6.98196e-107
-8.27806e-106
9.72121e-105
-1.13063e-103
1.30227e-102
-1.48535e-101
1.67752e-100
-1.87581e-99
2.07661e-98
-2.27579e-97
2.46879e-96
-2.65078e-95
2.81687e-94
-2.96225e-93
3.08248e-92
-3.17367e-91
3.23271e-90
-3.25741e-89
3.24664e-88
-3.20044e-87
3.11999e-86
-3.00758e-85
2.86652e-84
-2.70095e-83
2.51566e-82
-2.31584e-81
2.10685e-80
-1.89397e-79
1.68216e-78
-1.47592e-77
1.27908e-76
-1.09473e-75
9.25192e-75
-7.71976e-74
6.35851e-73
-5.16911e-72
4.1468e-71
-3.28225e-70
2.56279e-69
-1.97359e-68
1.49872e-67
-1.12206e-66
8.28039e-66
-6.02189e-65
4.31484e-64
-3.04538e-63
2.1167e-62
-1.44845e-61
9.75574e-61
-6.46554e-60
4.21511e-59
-2.70233e-58
1.70314e-57
-1.05486e-56
6.4182e-56
-3.83475e-55
2.24899e-54
-1.29413e-53
7.30297e-53
-4.03962e-52
2.1891e-51
-1.16152e-50
6.03048e-50
-3.06158e-49
1.51876e-48
-7.35577e-48
3.47519e-47
-1.59995e-46
7.17026e-46
-3.12406e-45
1.32143e-44
-5.41752e-44
2.14862e-43
-8.22511e-43
3.03086e-42
-1.07145e-41
3.61837e-41
-1.16078e-40
3.51019e-40
-9.89309e-40
2.55198e-39
-5.82872e-39
1.09311e-38
-1.27917e-38
-1.30426e-38
1.43129e-37
-5.51255e-37
1.47306e-36
-2.72875e-36
1.93834e-36
9.563e-36
-5.08923e-35
1.39738e-34
-2.16676e-34
-6.34731e-35
1.59497e-33
-5.36061e-33
8.9846e-33
2.24574e-33
-6.29324e-32
1.92709e-31
-2.32302e-31
-4.46776e-31
2.76187e-30
-5.47505e-30
-8.0143e-31
3.48782e-29
-8.99288e-29
3.10372e-29
4.48959e-28
-1.2927e-27
4.86064e-28
6.35447e-27
-1.70187e-26
3.44382e-28
9.62743e-26
-1.94725e-25
-1.68328e-25
1.40342e-24
-1.54282e-24
-5.1826e-24
1.68861e-23
2.51146e-24
-9.59246e-23
1.19099e-22
3.62661e-22
-1.08664e-21
-6.82657e-22
6.512e-21
-2.93208e-21
-3.1493e-20
4.22087e-20
1.30695e-19
-3.10008e-19
-4.7563e-19
1.84621e-18
1.52334e-18
-9.92909e-18
-4.31491e-18
5.05717e-17
1.18665e-17
-2.50065e-16
-4.75193e-17
1.21268e-15
3.54195e-16
-5.74939e-15
-3.10697e-15
2.6196e-14
2.4818e-14
-1.10731e-13
-1.7395e-13
4.04305e-13
1.06702e-12
-1.03842e-12
-5.64883e-12
-3.60128e-13
2.47038e-11
2.68926e-11
-7.84538e-11
-2.07752e-10
8.12508e-11
9.91403e-10
1.01389e-09
-2.69972e-09
-8.28027e-09
-1.90046e-09
3.07137e-08
6.0171e-08
-1.64004e-08
-2.69439e-07
-4.49884e-07
1.61952e-07
2.06819e-06
3.74111e-06
3.07141e-07
-1.33209e-05
-3.18433e-05
-2.66683e-05
5.04228e-05
0.000221555
0.000389682
0.000249652
-0.000673459
-0.00270767
-0.00537013
-0.00649585
-0.00155562
0.0163004
0.0550718
0.121652
0.219114
0.344593
0.488781
0.637526
0.775149
0.888363
0.969406
1.01732
1.03714
1.03749
1.02769
1.01537
1.00527
0.999186
0.996836
0.996914
0.998023
0.999182
0.999943
1.00026
1.00028
1.00017
1.00006
0.999997
0.999976
0.999979
0.999989
0.999998
1
1
1
1
1
1
1
1
1
1
1
1
1
1
1
1
1
1
1
1
1
1
1
1
1
1
1
1
1
1
1
1
1
1
1
1
1
1
1
1
1
1
1
1
1
1
1
1
1
1
1
1
1
1
0.999998
0.999996
1
1.00001
1.00003
1.00003
0.99995
0.999778
0.99961
0.99975
1.00067
1.00271
1.00537
1.0065
1.00156
0.9837
0.944928
0.878348
0.780886
0.655407
0.511219
0.362474
0.224851
0.111637
0.0305942
-0.0173222
-0.0371413
-0.0374891
-0.0276858
-0.0153682
-0.00526536
0.000814088
0.00316406
0.00308645
0.0019775
0.000817994
5.6842e-05
-0.00025883
-0.000276662
-0.000171901
-6.29256e-05
2.51774e-06
2.43964e-05
2.12421e-05
1.06905e-05
2.32258e-06
-1.4878e-06
-2.01564e-06
-1.2226e-06
-3.8483e-07
6.05329e-08
1.64928e-07
1.13075e-07
4.03745e-08
-1.37766e-09
-1.25342e-08
-9.07056e-09
-3.29425e-09
4.77547e-11
9.2042e-10
6.48711e-10
2.19791e-10
-1.32771e-11
-6.52572e-11
-4.14417e-11
-1.19051e-11
2.18148e-12
4.33545e-12
2.32603e-12
4.86191e-13
-2.31181e-13
-2.59617e-13
-1.10855e-13
-1.05519e-14
1.82354e-14
1.34905e-14
4.1945e-15
-3.95771e-16
-1.13161e-15
-5.83083e-16
-1.03724e-16
6.06677e-17
5.60223e-17
1.95332e-17
-2.39395e-19
-4.01316e-18
-2.17403e-18
-4.11668e-19
1.95108e-19
1.83857e-19
6.149e-20
-1.79657e-21
-1.23513e-20
-6.11904e-21
-9.21159e-22
6.30254e-22
4.85975e-22
1.34256e-22
-1.78862e-23
-3.2263e-23
-1.28695e-23
-8.02846e-25
1.78891e-24
9.99869e-25
1.82141e-25
-7.8247e-26
-6.68363e-26
-1.87002e-26
2.034e-27
3.92726e-27
1.48467e-27
6.16327e-29
-2.03281e-28
-1.01142e-28
-1.41217e-29
9.0997e-30
6.15043e-30
1.3372e-30
-3.30429e-31
-3.40223e-31
-9.81222e-32
7.41097e-33
1.72833e-32
6.24031e-33
1.66934e-34
-8.09242e-34
-3.58847e-34
-3.55695e-35
3.48679e-35
1.90609e-35
2.97981e-36
-1.37081e-36
-9.47153e-37
-1.94435e-37
4.81329e-38
4.44014e-38
1.10893e-38
-1.42915e-39
-1.97567e-39
-5.77008e-40
2.96526e-41
8.38338e-41
2.7981e-41
1.1568e-43
-3.4056e-42
-1.28055e-42
-5.93853e-44
1.32895e-43
5.57649e-44
4.44969e-45
-4.99725e-45
-2.32439e-45
-2.48451e-46
1.81633e-46
9.31442e-47
1.20285e-47
-6.40136e-48
-3.60087e-48
-5.30945e-49
2.19492e-49
1.34671e-49
2.18684e-50
-7.34857e-51
-4.88362e-51
-8.51224e-52
2.41152e-52
1.72038e-52
3.15569e-53
-7.78758e-54
-5.89628e-54
-1.11983e-54
2.48422e-55
1.96847e-55
3.81671e-56
-7.85399e-57
-6.40742e-57
-1.25225e-57
2.46682e-58
2.03483e-58
3.96092e-59
-7.70595e-60
-6.30751e-60
-1.20884e-60
2.39362e-61
1.90882e-61
3.56065e-62
-7.38206e-63
-5.63975e-63
-1.01195e-63
2.25499e-64
1.62659e-64
2.77262e-65
-6.80283e-66
-4.57807e-66
-7.3121e-67
2.0207e-67
1.25684e-67
1.85149e-68
-5.89312e-69
-3.36373e-69
-4.48367e-70
1.6832e-70
8.76994e-71
1.03204e-71
-4.6985e-72
-2.2256e-72
-2.23499e-73
1.27959e-73
5.49221e-74
4.4707e-75
-3.39519e-75
-1.31643e-75
-7.94963e-77
8.76708e-77
3.06056e-77
1.13279e-78
-2.20107e-78
-6.89001e-79
-7.37192e-81
5.36845e-80
1.49875e-80
-2.91341e-82
-1.27109e-81
-3.14132e-82
1.72102e-83
2.91937e-83
6.31979e-84
-6.16668e-85
-6.49901e-85
-1.21366e-85
1.84006e-86
1.40106e-86
2.20588e-87
-4.93851e-88
-2.92179e-88
-3.74026e-89
1.22948e-89
5.88622e-90
5.75581e-91
-2.88301e-91
-1.14355e-91
-7.53676e-93
6.42182e-93
2.13737e-93
6.67119e-95
-1.36565e-94
-3.83078e-95
3.07211e-97
2.78096e-96
6.55239e-97
-3.57312e-98
-5.43177e-98
-1.06176e-98
1.201e-99
1.01829e-99
1.61021e-100
-3.10962e-101
-1.83191e-101
-2.23461e-102
7.05861e-103
3.15921e-103
2.70128e-104
-1.46783e-104
-5.21167e-105
-2.4477e-106
2.85251e-106
8.19514e-107
3.32026e-109
-5.2341e-108
-1.22122e-108
5.72058e-110
9.11867e-110
1.70787e-110
-1.91638e-111
-1.51247e-111
-2.20232e-112
4.53111e-113
2.39024e-113
2.52488e-114
-9.17218e-115
-3.59553e-115
-2.33652e-116
1.68273e-116
5.13289e-117
1.07519e-118
-2.86599e-118
-6.91428e-119
2.10111e-120
4.58529e-120
8.69758e-121
-8.34164e-122
-6.93149e-122
-1.00167e-122
1.90693e-123
9.92304e-124
1.01173e-124
-3.58505e-125
-1.34467e-125
-7.91972e-127
6.01374e-127
1.71902e-127
2.0377e-129
-9.28695e-129
-2.05813e-129
9.11674e-131
1.33954e-130
2.27502e-131
-2.71204e-132
-1.81691e-132
-2.25417e-133
5.3212e-134
2.32255e-134
1.8597e-135
-8.78762e-136
-2.794e-136
-9.5201e-138
1.30397e-137
3.14553e-138
-5.87318e-140
-1.78476e-139
-3.2744e-140
2.82496e-141
2.28029e-141
3.07313e-142
-5.74443e-143
-2.73279e-143
-2.44712e-144
9.22083e-145
3.07219e-145
1.3353e-146
-1.30093e-146
-3.22462e-147
2.69783e-149
1.6754e-148
3.12394e-149
-2.30702e-150
-2.00201e-150
-2.72456e-151
4.64143e-152
2.2349e-152
2.01316e-153
-7.07166e-154
-2.33279e-154
-1.01655e-155
9.3511e-156
2.26628e-156
-1.96576e-158
-1.12205e-157
-2.02406e-158
1.5212e-159
1.24467e-159
1.61658e-160
-2.82871e-161
-1.28613e-161
-1.07618e-162
3.98473e-163
1.23897e-163
4.53469e-165
-4.86914e-165
-1.10666e-165
1.89694e-167
5.39427e-167
9.03225e-168
-7.89211e-169
-5.51782e-169
-6.51152e-170
1.28816e-170
5.2481e-171
3.77863e-172
-1.64475e-172
-4.64058e-173
-1.11527e-174
1.83745e-174
3.78687e-175
-1.23006e-176
-1.86642e-176
-2.79869e-177
3.07407e-178
1.75133e-178
1.78991e-179
-4.31693e-180
-1.52621e-180
-8.60462e-182
4.94494e-182
1.23273e-182
8.44668e-185
-5.01919e-184
-9.13209e-185
4.95656e-186
4.65416e-186
6.04632e-187
-8.69134e-188
-3.99171e-188
-3.34683e-189
1.05184e-189
3.17592e-190
1.19953e-191
-1.07817e-191
-2.33291e-192
3.37072e-194
9.91914e-194
1.5581e-194
-1.29271e-195
-8.37853e-196
-9.11349e-197
1.75746e-197
6.55392e-198
4.18833e-199
-1.85209e-199
-4.7478e-200
-7.95721e-202
1.70227e-201
3.1583e-202
-1.25843e-203
-1.42125e-203
-1.38591e-204
)
;

boundaryField
{
    sides
    {
        type            zeroGradient;
    }
    empty
    {
        type            empty;
    }
}


// ************************************************************************* //
