/*--------------------------------*- C++ -*----------------------------------*\
| =========                 |                                                 |
| \\      /  F ield         | OpenFOAM: The Open Source CFD Toolbox           |
|  \\    /   O peration     | Version:  2312                                  |
|   \\  /    A nd           | Website:  www.openfoam.com                      |
|    \\/     M anipulation  |                                                 |
\*---------------------------------------------------------------------------*/
FoamFile
{
    version     2.0;
    format      ascii;
    arch        "LSB;label=32;scalar=64";
    class       volScalarField;
    location    "1.1";
    object      T;
}
// * * * * * * * * * * * * * * * * * * * * * * * * * * * * * * * * * * * * * //

dimensions      [0 0 0 1 0 0 0];

internalField   nonuniform List<scalar> 
1000
(
0
0
0
0
0
0
0
0
0
0
0
0
0
0
0
0
0
0
0
0
0
0
0
0
0
0
0
0
0
0
0
0
0
0
0
0
0
0
0
0
0
0
0
0
0
0
0
0
0
0
0
0
0
0
0
0
0
0
0
0
0
0
0
0
0
0
0
0
0
0
0
0
0
0
0
0
0
0
0
0
0
0
0
0
0
0
0
0
0
0
0
0
0
0
0
0
0
0
0
0
0
0
0
0
0
0
0
0
0
0
0
0
0
0
0
0
0
0
0
0
0
0
0
0
0
0
0
0
0
0
0
0
0
0
0
0
0
0
0
0
0
0
0
0
0
0
0
0
0
0
0
0
0
0
0
0
0
0
0
0
0
0
0
0
0
0
0
0
0
0
0
0
0
0
0
0
0
0
0
0
0
0
0
0
0
0
0
0
0
0
0
0
0
0
0
0
0
0
0
0
0
0
0
0
0
0
0
0
0
0
0
0
0
0
0
0
0
0
0
0
0
0
0
0
0
0
0
0
0
0
0
0
0
0
0
0
0
0
0
0
0
0
0
0
0
0
0
0
0
0
0
0
0
0
0
0
0
0
0
0
0
0
0
0
0
0
0
0
0
0
0
0
0
0
0
0
0
0
0
0
0
0
0
0
0
0
0
0
0
0
0
0
0
0
0
0
0
0
0
0
0
0
0
0
0
0
0
0
0
0
0
0
0
0
0
0
0
0
0
0
0
0
0
0
0
0
0
0
0
0
0
0
0
0
0
0
0
0
0
0
0
0
0
0
0
0
0
0
0
0
0
0
0
0
0
0
0
0
0
0
0
0
0
0
0
0
0
0
0
0
0
0
0
0
0
0
0
0
0
0
0
0
0
0
0
0
0
0
0
0
0
0
0
0
0
0
0
0
0
0
0
0
0
0
1.92809e-62
-1.29432e-46
7.77731e-39
-4.60712e-35
1.19069e-33
5.36121e-32
8.43011e-31
8.19173e-30
5.76036e-29
3.09058e-28
1.21531e-27
2.5679e-27
-7.13847e-27
-1.04313e-25
-5.97651e-25
-2.35455e-24
-7.39332e-24
-2.25907e-23
-8.47492e-23
-3.61551e-22
-1.35614e-21
-3.73584e-21
-5.6045e-21
6.76564e-21
7.10505e-20
2.18404e-19
2.52263e-19
-8.62743e-19
-5.65492e-18
-1.64007e-17
-2.67995e-17
1.91067e-17
2.82569e-16
6.66313e-16
-6.18676e-16
-3.67783e-15
1.58471e-15
1.1527e-14
-6.87774e-15
-2.89835e-14
2.861e-14
6.0449e-14
-9.18629e-14
-1.16439e-13
2.5327e-13
2.13844e-13
-6.53121e-13
-3.44713e-13
1.56396e-12
5.8774e-13
-3.74079e-12
-9.87463e-13
8.65161e-12
1.9243e-12
-1.97383e-11
-4.88174e-12
4.40014e-11
1.6838e-11
-9.76717e-11
-5.7081e-11
2.08993e-10
1.76199e-10
-4.23236e-10
-5.0827e-10
7.29624e-10
1.40857e-09
-9.53794e-10
-3.50391e-09
2.99123e-10
7.78071e-09
3.72822e-09
-1.48981e-08
-1.64544e-08
1.93015e-08
4.89701e-08
-4.21193e-09
-1.05735e-07
-7.69209e-08
1.56414e-07
2.90842e-07
-4.65256e-08
-6.5382e-07
-5.41561e-07
7.76545e-07
1.90796e-06
5.33017e-07
-3.3205e-06
-4.72738e-06
6.59726e-07
1.05857e-05
1.15819e-05
-5.01949e-06
-3.05284e-05
-3.05839e-05
1.43017e-05
8.3098e-05
8.97196e-05
-1.67086e-05
-0.000204554
-0.000280466
-8.46077e-05
0.000398146
0.000829153
0.00069078
-0.000303674
-0.00186363
-0.00280983
-0.00192247
0.00142169
0.00642107
0.0100552
0.00884568
0.000610005
-0.0149224
-0.0337731
-0.0467418
-0.0441842
-0.0196819
0.0333291
0.116451
0.225579
0.351889
0.484004
0.610573
0.722484
0.814168
0.88385
0.932907
0.964754
0.983645
0.993707
0.99834
0.999895
1
1
1
1
1
1
1
1
1
1
1
1
1
1
1
1
1
1
1
1
1
1
1
1
1
1
1
1
1
1
1
1
1
1
1
1
1
1
1
1
1
1
1
1
1
1
1
1
1
1
0.999999
0.999998
0.999999
1
1
0.999999
0.999989
0.999988
1.00001
1.00003
1.00003
0.999986
0.999916
0.99991
1.00002
1.0002
1.00028
1.00009
0.999604
0.999172
0.999309
1.0003
1.00186
1.00281
1.00192
0.998572
0.993578
0.989951
0.991168
0.999408
1.01494
1.03378
1.04672
1.04414
1.0196
0.966545
0.88339
0.774244
0.647935
0.515836
0.389293
0.277414
0.18576
0.116105
0.0670673
0.0352333
0.0163497
0.00629103
0.00166018
0.000105479
1.19543e-09
7.59846e-11
4.80659e-12
3.14473e-13
1.8457e-14
3.60382e-16
2.95631e-16
2.66174e-16
2.20189e-16
1.71585e-16
1.29738e-16
9.74272e-17
7.34939e-17
5.5756e-17
4.23887e-17
3.21691e-17
2.43103e-17
1.82749e-17
1.36626e-17
1.01592e-17
7.51387e-18
5.52758e-18
4.04397e-18
2.94158e-18
2.12684e-18
1.5281e-18
1.09075e-18
7.73326e-19
5.44492e-19
3.8068e-19
2.64262e-19
1.82137e-19
1.24637e-19
8.4681e-20
5.71259e-20
3.82656e-20
2.5453e-20
1.68133e-20
1.10302e-20
7.1872e-21
4.65173e-21
2.99073e-21
1.91019e-21
1.21211e-21
7.64189e-22
4.78714e-22
2.97983e-22
1.84318e-22
1.13299e-22
6.92127e-23
4.20206e-23
2.53555e-23
1.52065e-23
9.06464e-24
5.3709e-24
3.16323e-24
1.85189e-24
1.07773e-24
6.23483e-25
3.58569e-25
2.05005e-25
1.16522e-25
6.58436e-26
3.69907e-26
2.06611e-26
1.14738e-26
6.33526e-27
3.47804e-27
1.89857e-27
1.03051e-27
5.56189e-28
2.98502e-28
1.59308e-28
8.45482e-29
4.4623e-29
2.34214e-29
1.22258e-29
6.34689e-30
3.27702e-30
1.68284e-30
8.59535e-31
4.36669e-31
2.2066e-31
1.10914e-31
5.54566e-32
2.75828e-32
1.36475e-32
6.71749e-33
3.28939e-33
1.60247e-33
7.76681e-34
3.74529e-34
1.79693e-34
8.5781e-35
4.07454e-35
1.92577e-35
9.05693e-36
4.23859e-36
1.97395e-36
9.14829e-37
4.21931e-37
1.93667e-37
8.8469e-38
4.02218e-38
1.82003e-38
8.19698e-39
3.67451e-39
1.63955e-39
7.28188e-40
3.21934e-40
1.41679e-40
6.20682e-41
2.7069e-41
1.17523e-41
5.07965e-42
2.18583e-42
9.36438e-43
3.99425e-43
1.69627e-43
7.17243e-44
3.0197e-44
1.26589e-44
5.28411e-45
2.19636e-45
9.09077e-46
3.74692e-46
1.53792e-46
6.28619e-47
2.55887e-47
1.03735e-47
4.18817e-48
1.68407e-48
6.74434e-49
2.69013e-49
1.06874e-49
4.22902e-50
1.66683e-50
6.54385e-51
2.55903e-51
9.96843e-52
3.86809e-52
1.49518e-52
5.75738e-53
2.20852e-53
8.43977e-54
3.21308e-54
1.21866e-54
4.60493e-55
1.7336e-55
6.50236e-56
2.42995e-56
9.0476e-57
3.35652e-57
1.24072e-57
4.56976e-58
1.67709e-58
6.13296e-59
2.23483e-59
8.1149e-60
2.93628e-60
1.05875e-60
3.80433e-61
1.36226e-61
4.86123e-62
1.7288e-62
6.12716e-63
2.16422e-63
7.61861e-64
2.67295e-64
9.34656e-65
3.25737e-65
1.13147e-65
3.91731e-66
1.35178e-66
4.64949e-67
1.59402e-67
5.44722e-68
1.85549e-68
6.30011e-69
2.13232e-69
7.19411e-70
2.41952e-70
8.11172e-71
2.71105e-71
9.03247e-72
3.00005e-72
9.9336e-73
3.27906e-73
1.0791e-73
3.54039e-74
1.15804e-74
3.77642e-75
1.22781e-75
3.98e-76
1.28629e-76
4.14483e-77
1.33165e-77
4.26575e-78
1.36248e-78
4.33906e-79
1.37785e-79
4.36264e-80
1.37736e-80
4.33613e-81
1.36118e-81
4.26085e-82
1.32999e-82
4.13975e-83
1.28494e-83
3.97719e-84
1.22762e-84
3.77872e-85
1.15992e-85
3.55075e-86
1.08398e-86
3.3002e-87
1.00203e-87
3.03422e-88
9.16316e-89
2.75981e-89
8.28997e-90
2.48355e-90
7.42066e-91
2.2114e-91
6.5728e-92
1.94849e-92
5.76122e-93
1.69904e-93
4.99771e-94
1.46629e-94
4.29097e-95
1.25251e-95
3.64673e-96
1.05907e-96
3.06797e-97
8.86511e-98
2.55523e-98
7.34671e-99
2.10706e-99
6.02818e-100
1.72038e-100
4.89775e-101
1.39093e-101
3.94055e-102
1.11366e-102
3.13979e-103
8.8308e-104
2.47775e-104
6.9355e-105
1.9367e-105
5.39532e-106
1.49949e-106
4.15767e-107
1.1501e-107
3.174e-108
8.73908e-109
2.40059e-109
6.57907e-110
1.79892e-110
4.90753e-111
1.33574e-111
3.62735e-112
9.82816e-113
2.65689e-113
7.1663e-114
1.9286e-114
5.17867e-115
1.38748e-115
3.70911e-116
9.89355e-117
2.63316e-117
6.99274e-118
1.85297e-118
4.89937e-119
1.29261e-119
3.40296e-120
8.93939e-121
2.34328e-121
6.12929e-122
1.59981e-122
4.1668e-123
1.08297e-123
2.80874e-124
7.26929e-125
1.87742e-125
4.83862e-126
1.24445e-126
3.19397e-127
8.1806e-128
2.09095e-128
5.33347e-129
1.35764e-129
3.44885e-130
8.74339e-131
2.2121e-131
5.58536e-132
1.40742e-132
3.53935e-133
8.88288e-134
2.22494e-134
5.56186e-135
1.38759e-135
3.45498e-136
8.58567e-137
2.12937e-137
5.27084e-138
1.30215e-138
3.21071e-139
7.9013e-140
1.9407e-140
4.75755e-141
1.16406e-141
2.84275e-142
6.92906e-143
1.68572e-143
4.09332e-144
9.92078e-145
2.39994e-145
5.79482e-146
1.39659e-146
3.35961e-147
8.06684e-148
1.93337e-148
4.62513e-149
1.10442e-149
2.6324e-150
6.26287e-151
1.48732e-151
3.52572e-152
8.34266e-153
1.97051e-153
4.64591e-154
1.09341e-154
2.56875e-155
6.02402e-156
1.4102e-156
3.29536e-157
7.68706e-158
1.79e-158
4.16087e-159
9.65506e-160
2.2365e-160
5.17164e-161
1.19381e-161
2.751e-162
6.32848e-163
1.45332e-163
3.33181e-164
7.62532e-165
1.74219e-165
3.97373e-166
9.04826e-167
2.05683e-167
4.66771e-168
1.0575e-168
2.39183e-169
5.40078e-170
1.21748e-170
2.73997e-171
6.15622e-172
1.38091e-172
3.09248e-173
6.91409e-174
)
;

boundaryField
{
    sides
    {
        type            zeroGradient;
    }
    empty
    {
        type            empty;
    }
}


// ************************************************************************* //
