/*--------------------------------*- C++ -*----------------------------------*\
| =========                 |                                                 |
| \\      /  F ield         | OpenFOAM: The Open Source CFD Toolbox           |
|  \\    /   O peration     | Version:  2312                                  |
|   \\  /    A nd           | Website:  www.openfoam.com                      |
|    \\/     M anipulation  |                                                 |
\*---------------------------------------------------------------------------*/
FoamFile
{
    version     2.0;
    format      ascii;
    arch        "LSB;label=32;scalar=64";
    class       volScalarField;
    location    "2.4";
    object      T;
}
// * * * * * * * * * * * * * * * * * * * * * * * * * * * * * * * * * * * * * //

dimensions      [0 0 0 1 0 0 0];

internalField   nonuniform List<scalar> 
1000
(
0
0
0
0
0
0
0
0
0
0
0
0
0
0
0
0
0
0
0
0
0
0
0
0
0
0
0
0
0
0
0
0
0
0
0
0
0
0
0
0
0
0
0
0
0
0
0
0
0
0
0
0
0
0
0
0
0
0
0
0
0
0
0
0
0
0
0
0
0
0
0
0
0
0
0
0
0
0
0
0
0
0
0
0
0
0
0
0
0
0
0
0
0
0
0
0
0
0
0
0
0
0
0
0
0
0
0
0
0
0
0
0
0
0
0
0
0
0
0
0
0
0
0
0
0
0
0
0
0
0
0
0
0
0
0
0
0
0
0
0
0
0
0
0
0
0
0
0
0
0
0
0
0
0
0
0
0
0
0
0
0
0
0
0
0
0
0
0
0
0
0
0
0
0
0
0
0
0
0
0
0
0
0
0
0
0
0
0
0
0
0
0
0
0
0
0
0
0
0
0
0
0
0
0
0
0
0
0
0
0
0
0
0
0
0
0
0
0
0
0
0
0
0
0
0
0
0
0
0
0
0
0
0
0
0
0
0
0
0
0
0
0
0
0
0
0
0
0
0
0
0
0
0
0
0
0
0
0
0
0
0
0
0
0
0
0
0
0
0
0
0
0
0
0
0
0
0
0
0
0
0
0
0
0
0
0
0
0
0
0
0
0
0
0
0
0
0
0
0
0
0
0
0
0
0
0
0
0
0
0
0
0
0
0
0
0
0
0
0
0
0
0
0
0
0
0
0
0
0
0
0
0
0
0
0
0
0
0
0
0
0
0
0
0
0
0
0
0
0
0
0
0
0
0
0
0
0
0
0
0
0
0
0
0
0
0
0
0
0
0
0
0
0
0
0
0
0
0
0
0
0
0
0
0
0
0
0
0
0
0
0
0
0
0
0
0
0
0
0
0
0
0
0
0
0
0
0
0
0
0
0
0
0
0
0
0
0
0
0
0
0
0
0
0
0
0
0
0
0
0
0
0
0
0
0
0
0
0
0
0
0
0
0
0
0
0
0
0
0
0
2.93018e-69
4.50449e-67
3.46389e-65
1.77659e-63
6.83706e-62
2.10591e-60
5.40785e-59
1.19086e-57
2.29564e-56
3.93541e-55
6.07461e-54
8.52809e-53
1.09798e-51
1.30549e-50
1.44201e-49
1.4873e-48
1.43879e-47
1.31059e-46
1.12801e-45
9.20184e-45
7.13447e-44
5.27059e-43
3.71838e-42
2.5104e-41
1.62498e-40
1.01025e-39
6.0419e-39
3.48121e-38
1.93506e-37
1.03901e-36
5.39541e-36
2.71263e-35
1.32182e-34
6.24871e-34
2.86845e-33
1.27973e-32
5.55341e-32
2.34587e-31
9.65322e-31
3.87225e-30
1.51518e-29
5.7869e-29
2.15858e-28
7.86822e-28
2.80419e-27
9.77654e-27
3.33599e-26
1.11463e-25
3.64841e-25
1.17038e-24
3.68119e-24
1.13568e-23
3.43797e-23
1.02161e-22
2.98099e-22
8.54432e-22
2.40648e-21
6.6621e-21
1.81343e-20
4.85488e-20
1.27871e-19
3.31436e-19
8.45633e-19
2.12437e-18
5.25601e-18
1.28105e-17
3.07654e-17
7.28193e-17
1.69909e-16
3.90899e-16
8.86923e-16
1.98503e-15
4.38327e-15
9.55127e-15
2.05418e-14
4.36127e-14
9.14241e-14
1.8926e-13
3.86972e-13
7.81622e-13
1.55985e-12
3.07612e-12
5.99553e-12
1.1551e-11
2.20013e-11
4.14354e-11
7.71708e-11
1.42152e-10
2.59016e-10
4.66914e-10
8.32793e-10
1.46988e-09
2.5676e-09
4.43942e-09
7.59851e-09
1.28762e-08
2.16048e-08
3.58977e-08
5.90728e-08
9.62849e-08
1.55462e-07
2.48676e-07
3.9412e-07
6.1895e-07
9.63289e-07
1.48585e-06
2.27171e-06
3.44295e-06
5.17309e-06
7.70641e-06
1.13835e-05
1.66747e-05
2.42238e-05
3.4903e-05
4.98837e-05
7.0724e-05
9.94775e-05
0.000138825
0.000192236
0.000264154
0.000360225
0.00048755
0.00065498
0.000873443
0.00115631
0.00151977
0.00198328
0.00256995
0.003307
0.00422615
0.00536404
0.00676251
0.00846889
0.0105361
0.0130229
0.0159932
0.0195165
0.0236669
0.0285224
0.0341642
0.0406753
0.0481393
0.0566389
0.0662537
0.0770589
0.0891227
0.102505
0.117254
0.133407
0.150985
0.169993
0.190421
0.212237
0.235394
0.259824
0.28544
0.312138
0.339798
0.368284
0.397448
0.42713
0.457164
0.487378
0.517599
0.547654
0.577375
0.606599
0.635175
0.66296
0.689827
0.715664
0.740375
0.763881
0.786119
0.807045
0.826632
0.844869
0.861758
0.877319
0.89158
0.904582
0.916377
0.927021
0.936578
0.945115
0.952704
0.959415
0.965321
0.970493
0.975
0.978907
0.98228
0.985175
0.98765
0.989755
0.991537
0.993039
0.994298
0.995349
0.996222
0.996944
0.997538
0.998025
0.998422
0.998744
0.999004
0.999213
0.99938
0.999512
0.999616
0.999697
0.999758
0.999802
0.999832
0.999848
0.999852
0.999842
0.999817
0.999774
0.999711
0.999621
0.999499
0.999335
0.999119
0.998838
0.998476
0.998014
0.997428
0.996691
0.995773
0.994635
0.993237
0.991531
0.989464
0.986977
0.984007
0.980483
0.976333
0.971478
0.965836
0.959325
0.951861
0.943361
0.933746
0.922941
0.910877
0.897495
0.882746
0.866593
0.849015
0.830007
0.809579
0.787763
0.764606
0.740176
0.71456
0.687862
0.660202
0.631716
0.602552
0.57287
0.542836
0.512622
0.482401
0.452346
0.422625
0.393401
0.364825
0.33704
0.310173
0.284336
0.259625
0.236119
0.213881
0.192955
0.173368
0.155131
0.138242
0.122681
0.10842
0.0954176
0.083623
0.072979
0.0634221
0.0548847
0.0472962
0.0405849
0.0346789
0.029507
0.0250004
0.0210926
0.0177205
0.0148246
0.0123497
0.0102446
0.00846261
0.00696121
0.00570218
0.00465131
0.00377825
0.00305627
0.00246197
0.00197501
0.0015778
0.00125527
0.000994561
0.000784762
0.000616683
0.000482623
0.000376169
0.000292005
0.000225755
0.000173832
0.000133312
0.000101828
7.74688e-05
5.87021e-05
4.43051e-05
3.33068e-05
2.494e-05
1.86017e-05
1.38199e-05
1.02273e-05
7.53926e-06
5.53619e-06
4.04963e-06
2.95085e-06
2.14197e-06
1.54889e-06
1.11577e-06
8.00717e-07
5.72458e-07
4.07731e-07
2.89318e-07
2.04529e-07
1.44051e-07
1.01081e-07
7.06671e-08
4.92229e-08
3.41606e-08
2.3621e-08
1.62739e-08
1.11715e-08
7.64122e-09
5.20779e-09
3.53662e-09
2.39317e-09
1.61367e-09
1.08422e-09
7.25924e-10
4.84325e-10
3.22006e-10
2.13342e-10
1.40857e-10
9.26788e-11
6.07694e-11
3.97098e-11
2.58598e-11
1.67832e-11
1.08554e-11
6.99766e-12
4.49568e-12
2.8786e-12
1.83702e-12
1.16843e-12
7.4071e-13
4.68014e-13
2.94741e-13
1.85011e-13
1.15753e-13
7.21867e-14
4.48717e-14
2.78025e-14
1.71711e-14
1.0571e-14
6.48711e-15
3.96827e-15
2.41977e-15
1.47087e-15
8.9127e-16
5.3837e-16
3.24187e-16
1.94607e-16
1.16459e-16
6.94777e-17
4.13219e-17
2.4501e-17
1.4483e-17
8.53515e-18
5.0147e-18
2.93742e-18
1.71545e-18
9.9882e-19
5.79824e-19
3.35592e-19
1.93658e-19
1.11423e-19
6.39196e-20
3.65609e-20
2.0851e-20
1.18569e-20
6.72282e-21
3.80079e-21
2.14261e-21
1.20437e-21
6.75049e-22
3.77284e-22
2.10264e-22
1.1685e-22
6.47539e-23
3.57832e-23
1.97184e-23
1.08355e-23
5.93768e-24
3.24471e-24
1.76821e-24
9.60928e-25
5.2078e-25
2.81467e-25
1.51709e-25
8.15485e-26
4.3716e-26
2.33717e-26
1.24615e-26
6.62646e-27
3.51423e-27
1.85875e-27
9.80517e-28
5.15868e-28
2.70691e-28
1.41666e-28
7.39464e-29
3.84974e-29
1.99901e-29
1.0353e-29
5.34805e-30
2.75551e-30
1.41609e-30
7.25879e-31
3.71131e-31
1.89271e-31
9.62798e-32
4.88526e-32
2.47254e-32
1.24826e-32
6.28604e-33
3.15765e-33
1.58222e-33
7.90844e-34
3.94311e-34
1.96117e-34
9.73018e-35
4.81572e-35
2.3776e-35
1.171e-35
5.75334e-36
2.81988e-36
1.37877e-36
6.7252e-37
3.27248e-37
1.58858e-37
7.69313e-38
3.71676e-38
1.79141e-38
8.61391e-39
4.13219e-39
1.97761e-39
9.44238e-40
4.49788e-40
2.13758e-40
1.01351e-40
4.79436e-41
2.26271e-41
1.06544e-41
5.00529e-42
2.34605e-42
1.09712e-42
5.119e-43
2.38303e-43
1.10686e-43
5.12952e-44
2.37183e-44
1.09425e-44
5.03712e-45
2.31355e-45
1.06025e-45
4.84817e-46
2.21201e-46
1.00703e-46
4.57446e-47
2.07342e-47
9.37752e-48
4.23197e-48
1.9057e-48
8.56297e-49
3.83935e-49
1.71774e-49
7.66873e-50
3.41633e-50
1.51869e-50
6.73683e-51
2.98208e-51
1.31724e-51
5.8062e-52
2.55391e-52
1.12101e-52
4.91023e-53
2.14629e-53
9.36206e-54
4.07524e-54
1.77025e-54
7.674e-55
3.31982e-55
1.43323e-55
6.17484e-56
2.65491e-56
1.13918e-56
4.87808e-57
2.08463e-57
8.89057e-58
3.78405e-58
1.60735e-58
6.8139e-59
2.88279e-59
1.21721e-59
5.12924e-60
2.15715e-60
9.05419e-61
3.79282e-61
1.5857e-61
6.61651e-62
2.75541e-62
1.14524e-62
4.75076e-63
1.96692e-63
8.12772e-64
3.35207e-64
1.37982e-64
5.66885e-65
2.32454e-65
9.51372e-66
3.88629e-66
1.58451e-66
6.44811e-67
2.61907e-67
1.0618e-67
4.29659e-68
1.73536e-68
6.99587e-69
2.81503e-69
)
;

boundaryField
{
    sides
    {
        type            zeroGradient;
    }
    empty
    {
        type            empty;
    }
}


// ************************************************************************* //
