/*--------------------------------*- C++ -*----------------------------------*\
| =========                 |                                                 |
| \\      /  F ield         | OpenFOAM: The Open Source CFD Toolbox           |
|  \\    /   O peration     | Version:  2312                                  |
|   \\  /    A nd           | Website:  www.openfoam.com                      |
|    \\/     M anipulation  |                                                 |
\*---------------------------------------------------------------------------*/
FoamFile
{
    version     2.0;
    format      ascii;
    arch        "LSB;label=32;scalar=64";
    class       volScalarField;
    location    "0.1";
    object      T;
}
// * * * * * * * * * * * * * * * * * * * * * * * * * * * * * * * * * * * * * //

dimensions      [0 0 0 1 0 0 0];

internalField   nonuniform List<scalar> 
1000
(
0
0
0
0
0
0
0
0
0
0
0
0
0
0
0
0
0
0
0
0
0
0
0
0
0
0
0
0
0
0
0
0
0
0
0
0
0
0
0
0
0
0
0
0
0
0
0
0
0
0
0
0
0
0
0
0
0
0
0
0
0
0
0
0
0
0
0
0
0
0
0
0
0
0
0
0
0
0
0
0
0
0
0
0
0
0
0
0
0
0
0
0
0
0
0
0
0
0
0
0
0
0
0
0
0
0
0
0
0
0
0
0
0
0
0
0
0
0
0
0
0
0
0
0
0
0
0
0
0
0
0
0
0
0
0
0
0
0
0
0
0
0
0
0
0
0
0
0
0
0
0
0
0
0
0
0
0
0
0
0
0
0
0
0
0
0
0
0
0
0
0
0
0
0
0
0
0
0
0
0
0
0
0
0
0
0
0
0
0
0
0
0
0
0
0
0
0
0
0
0
0
0
0
0
0
0
0
0
0
0
0
0
0
0
0
0
0
0
0
0
0
0
0
0
0
0
0
0
0
0
0
0
0
0
0
0
0
0
0
0
0
0
0
0
0
0
0
0
0
0
0
0
0
0
0
0
0
0
0
0
0
0
0
0
0
0
0
0
0
0
0
0
0
0
0
0
0
0
0
0
0
0
0
0
0
0
0
0
0
0
0
0
0
0
0
0
0
0
0
0
0
0
0
0
0
0
0
0
0
0
0
0
0
0
0
0
0
0
0
0
0
0
0
0
0
0
0
0
0
0
0
0
0
0
0
0
0
0
0
0
0
0
0
0
0
0
0
0
0
0
0
0
0
0
0
0
0
0
0
0
0
0
0
0
0
0
0
0
0
0
0
0
0
0
0
0
0
0
0
0
0
0
0
0
0
0
0
0
0
0
0
0
0
0
0
0
0
0
0
0
0
0
0
0
0
0
0
0
0
0
0
0
0
0
0
0
0
0
0
0
0
0
3.29347e-42
-1.47033e-27
1.71056e-20
-3.8737e-17
1.64417e-15
-1.86181e-14
1.46084e-13
-1.02671e-12
6.84753e-12
-4.36104e-11
2.64664e-10
-1.52521e-09
8.31163e-09
-4.26219e-08
2.04474e-07
-9.11237e-07
3.73936e-06
-1.39716e-05
4.68192e-05
-0.000137727
0.000343961
-0.000686289
0.000941499
-0.000302355
-0.00220331
0.00463846
0.000166255
-0.0129839
0.00644421
0.033444
-0.0076634
-0.0912877
-0.0770883
0.110406
0.41836
0.714061
0.906335
0.988616
1
1
1
1
1
1
1
1
1
1
1
1
1
1
1
1
1
1
1
1
1
1
1
1
1
1
1
1
1
1
1
1
1
1
1
1
1
1
1
1
1
1
1
1
1
1
1
1
1
1
1
1
1
1
1
1
1
1
1
1
1
1
1
1
1
1
1
1
1
1
1
1
1
1
1
1
1
1
0.999996
1.00001
0.999953
1.00014
0.999652
1.0007
0.999031
1.00036
1.00214
0.995305
1.00008
1.01298
0.993325
0.966224
1.00841
1.09146
1.07655
0.888829
0.581133
0.285805
0.0937377
0.0114467
4.18541e-11
4.27748e-12
4.18079e-14
1.47789e-16
1.35744e-16
1.33899e-16
1.27931e-16
1.16236e-16
9.8985e-17
7.83379e-17
5.74466e-17
3.90664e-17
2.47077e-17
1.45869e-17
8.07041e-18
4.20043e-18
2.06412e-18
9.60934e-19
4.25155e-19
1.79295e-19
7.22659e-20
2.79075e-20
1.03496e-20
3.69363e-21
1.27101e-21
4.22455e-22
1.3585e-22
4.23296e-23
1.2798e-23
3.75943e-24
1.07425e-24
2.98941e-25
8.10997e-26
2.14701e-26
5.55177e-27
1.40343e-27
3.47105e-28
8.40584e-29
1.99464e-29
4.64096e-30
1.05948e-30
2.37458e-31
5.22806e-32
1.13135e-32
2.40757e-33
5.04091e-34
1.03894e-34
2.10874e-35
4.21687e-36
8.3114e-37
1.61527e-37
3.0965e-38
5.85738e-39
1.09369e-39
2.01647e-40
3.67224e-41
6.60761e-42
1.17506e-42
2.06587e-43
3.5916e-44
6.17634e-45
1.05085e-45
1.76939e-46
2.94904e-47
4.86642e-48
7.95254e-49
1.28724e-49
2.06425e-50
3.28017e-51
5.16589e-52
8.0647e-53
1.24826e-53
1.91588e-54
2.91642e-55
4.40375e-56
6.5971e-57
9.80636e-58
1.44661e-58
2.11809e-59
3.07856e-60
4.44244e-61
6.36533e-62
9.05738e-63
1.28003e-63
1.7969e-64
2.50593e-65
3.47217e-66
4.78045e-67
6.54065e-68
8.89409e-69
1.20214e-69
1.6152e-70
2.15753e-71
2.86541e-72
3.78405e-73
4.96943e-74
6.49045e-75
8.43135e-76
1.08946e-76
1.4004e-77
1.79082e-78
2.2785e-79
2.88452e-80
3.63379e-81
4.55551e-82
5.68378e-83
7.05814e-84
8.7242e-85
1.07343e-85
1.3148e-86
1.60329e-87
1.94652e-88
2.35302e-89
2.8323e-90
3.39488e-91
4.05234e-92
4.81734e-93
5.70365e-94
6.72614e-95
7.90077e-96
9.24453e-97
1.07754e-97
1.25124e-98
1.44752e-99
1.66842e-100
1.91603e-101
2.19249e-102
2.49995e-103
2.84053e-104
3.21634e-105
3.62943e-106
4.08175e-107
4.57512e-108
5.11122e-109
5.69155e-110
6.31737e-111
6.98969e-112
7.70926e-113
8.47647e-114
9.29142e-115
1.01538e-115
1.10629e-116
1.20176e-117
1.30164e-118
1.40573e-119
1.51378e-120
1.62552e-121
1.7406e-122
1.85865e-123
1.97926e-124
2.10197e-125
2.22629e-126
2.35169e-127
2.47762e-128
2.6035e-129
2.72873e-130
2.85269e-131
2.97476e-132
3.0943e-133
3.2107e-134
3.32333e-135
3.43158e-136
3.53486e-137
3.63262e-138
3.7243e-139
3.80943e-140
3.88752e-141
3.95818e-142
4.02102e-143
4.07572e-144
4.12202e-145
4.15971e-146
4.18862e-147
4.20866e-148
4.21979e-149
4.22202e-150
4.21542e-151
4.20011e-152
4.17627e-153
4.14412e-154
4.10394e-155
4.05604e-156
4.00077e-157
3.93852e-158
3.86971e-159
3.79478e-160
3.71421e-161
3.62848e-162
3.53809e-163
3.44354e-164
3.34535e-165
3.24403e-166
3.14009e-167
3.03403e-168
2.92634e-169
2.81751e-170
2.70798e-171
2.5982e-172
2.48859e-173
2.37954e-174
2.27143e-175
2.1646e-176
2.05937e-177
1.95603e-178
1.85484e-179
1.75604e-180
1.65983e-181
1.56639e-182
1.47587e-183
1.38841e-184
1.30409e-185
1.22301e-186
1.14522e-187
1.07074e-188
9.996e-190
9.31793e-191
8.67297e-192
8.06078e-193
7.48088e-194
6.93263e-195
6.41534e-196
5.92818e-197
5.47026e-198
5.04063e-199
4.63827e-200
4.26213e-201
3.91111e-202
3.58412e-203
3.28002e-204
2.9977e-205
2.73603e-206
2.4939e-207
2.27021e-208
2.0639e-209
1.87391e-210
1.69922e-211
1.53886e-212
1.39187e-213
1.25733e-214
1.13439e-215
1.0222e-216
9.19972e-218
8.26959e-219
7.42448e-220
6.65772e-221
5.96302e-222
5.33447e-223
4.76655e-224
4.25412e-225
3.79236e-226
3.37682e-227
3.00337e-228
2.66818e-229
2.36772e-230
2.09874e-231
1.85824e-232
1.64348e-233
1.45194e-234
1.28132e-235
1.12952e-236
9.94638e-238
8.74922e-239
7.68797e-240
6.74831e-241
5.91728e-242
5.18318e-243
4.53545e-244
3.96458e-245
3.46202e-246
3.0201e-247
2.63192e-248
2.29134e-249
1.99285e-250
1.73152e-251
1.50298e-252
1.30334e-253
1.12911e-254
9.77228e-256
8.44967e-257
7.2991e-258
6.29922e-259
5.4312e-260
4.67841e-261
4.02622e-262
3.46174e-263
2.97367e-264
2.55208e-265
2.18828e-266
1.87464e-267
1.60452e-268
1.3721e-269
1.1723e-270
1.00072e-271
8.53504e-273
7.27312e-274
6.19242e-275
5.26777e-276
4.47736e-277
3.80232e-278
3.22633e-279
2.7353e-280
2.31706e-281
1.96115e-282
1.65854e-283
1.40147e-284
1.18328e-285
9.98253e-287
8.41479e-288
7.08758e-289
5.96494e-290
5.01616e-291
4.21496e-292
3.53897e-293
2.96907e-294
2.48902e-295
2.08498e-296
1.74519e-297
1.45967e-298
1.21993e-299
1.01881e-300
8.502e-302
7.08969e-303
5.90761e-304
4.919e-305
4.09283e-306
3.40294e-307
2.82729e-308
2.34733e-309
1.94745e-310
1.61454e-311
1.33759e-312
1.10737e-313
9.16125e-315
7.57383e-316
6.25713e-317
5.16577e-318
4.26186e-319
3.5133e-320
2.88534e-321
2.32211e-322
1.97626e-323
0
0
0
0
0
0
0
0
0
0
0
0
0
0
0
0
0
0
0
0
0
0
0
0
0
0
0
0
0
0
0
0
0
0
0
0
0
0
0
0
0
0
0
0
0
0
0
0
0
0
0
0
0
0
0
0
0
0
0
0
0
0
0
0
0
0
0
0
0
0
0
0
0
0
0
0
0
0
0
0
0
0
0
0
0
0
0
0
0
0
0
0
0
0
0
0
0
0
0
)
;

boundaryField
{
    sides
    {
        type            zeroGradient;
    }
    empty
    {
        type            empty;
    }
}


// ************************************************************************* //
