/*--------------------------------*- C++ -*----------------------------------*\
| =========                 |                                                 |
| \\      /  F ield         | OpenFOAM: The Open Source CFD Toolbox           |
|  \\    /   O peration     | Version:  2312                                  |
|   \\  /    A nd           | Website:  www.openfoam.com                      |
|    \\/     M anipulation  |                                                 |
\*---------------------------------------------------------------------------*/
FoamFile
{
    version     2.0;
    format      ascii;
    arch        "LSB;label=32;scalar=64";
    class       volScalarField;
    location    "3.7";
    object      T;
}
// * * * * * * * * * * * * * * * * * * * * * * * * * * * * * * * * * * * * * //

dimensions      [0 0 0 1 0 0 0];

internalField   nonuniform List<scalar> 
1000
(
1.77584e-07
1.77968e-07
1.79026e-07
1.80761e-07
1.8318e-07
1.86289e-07
1.90099e-07
1.94622e-07
1.99873e-07
2.0587e-07
2.1263e-07
2.20177e-07
2.28535e-07
2.3773e-07
2.47792e-07
2.58754e-07
2.7065e-07
2.83518e-07
2.974e-07
3.12339e-07
3.28383e-07
3.45581e-07
3.63989e-07
3.83664e-07
4.04667e-07
4.27063e-07
4.50923e-07
4.76318e-07
5.03329e-07
5.32036e-07
5.62529e-07
5.94899e-07
6.29244e-07
6.65668e-07
7.0428e-07
7.45195e-07
7.88534e-07
8.34427e-07
8.83008e-07
9.34419e-07
9.88811e-07
1.04634e-06
1.10718e-06
1.17149e-06
1.23947e-06
1.3113e-06
1.3872e-06
1.46737e-06
1.55204e-06
1.64145e-06
1.73584e-06
1.83547e-06
1.94063e-06
2.05159e-06
2.16866e-06
2.29216e-06
2.42242e-06
2.55978e-06
2.70462e-06
2.85731e-06
3.01827e-06
3.18791e-06
3.36667e-06
3.55502e-06
3.75345e-06
3.96246e-06
4.18259e-06
4.4144e-06
4.65847e-06
4.91542e-06
5.18588e-06
5.47054e-06
5.77009e-06
6.08527e-06
6.41684e-06
6.76563e-06
7.13246e-06
7.51822e-06
7.92383e-06
8.35025e-06
8.7985e-06
9.26962e-06
9.76472e-06
1.02849e-05
1.08315e-05
1.14056e-05
1.20086e-05
1.26419e-05
1.33069e-05
1.4005e-05
1.47379e-05
1.55071e-05
1.63144e-05
1.71615e-05
1.80503e-05
1.89826e-05
1.99606e-05
2.09862e-05
2.20617e-05
2.31894e-05
2.43715e-05
2.56106e-05
2.69093e-05
2.82701e-05
2.9696e-05
3.11898e-05
3.27546e-05
3.43934e-05
3.61095e-05
3.79065e-05
3.97877e-05
4.1757e-05
4.38181e-05
4.5975e-05
4.82319e-05
5.05931e-05
5.30631e-05
5.56465e-05
5.83482e-05
6.11732e-05
6.41268e-05
6.72144e-05
7.04416e-05
7.38143e-05
7.73385e-05
8.10207e-05
8.48672e-05
8.8885e-05
9.30811e-05
9.74627e-05
0.000102038
0.000106813
0.000111799
0.000117001
0.000122431
0.000128095
0.000134005
0.000140169
0.000146599
0.000153303
0.000160294
0.000167582
0.000175179
0.000183096
0.000191348
0.000199945
0.000208902
0.000218233
0.000227951
0.000238071
0.000248609
0.00025958
0.000271001
0.000282888
0.000295259
0.000308131
0.000321524
0.000335455
0.000349946
0.000365016
0.000380687
0.00039698
0.000413917
0.000431522
0.000449818
0.00046883
0.000488583
0.000509104
0.000530419
0.000552556
0.000575544
0.000599411
0.000624189
0.000649909
0.000676601
0.000704301
0.000733041
0.000762857
0.000793785
0.000825861
0.000859125
0.000893614
0.00092937
0.000966434
0.00100485
0.00104466
0.0010859
0.00112864
0.0011729
0.00121875
0.00126622
0.00131538
0.00136628
0.00141896
0.00147349
0.00152992
0.00158831
0.00164872
0.00171121
0.00177584
0.00184268
0.00191179
0.00198325
0.00205711
0.00213346
0.00221236
0.00229388
0.00237811
0.00246512
0.00255499
0.0026478
0.00274363
0.00284257
0.00294471
0.00305014
0.00315894
0.0032712
0.00338703
0.00350651
0.00362975
0.00375685
0.00388791
0.00402303
0.00416232
0.0043059
0.00445386
0.00460632
0.00476341
0.00492523
0.0050919
0.00526355
0.0054403
0.00562228
0.00580961
0.00600243
0.00620087
0.00640506
0.00661514
0.00683125
0.00705354
0.00728214
0.0075172
0.00775888
0.00800732
0.00826267
0.0085251
0.00879475
0.0090718
0.00935639
0.00964871
0.0099489
0.0102572
0.0105736
0.0108985
0.0112319
0.0115741
0.0119252
0.0122855
0.012655
0.013034
0.0134227
0.0138212
0.0142298
0.0146486
0.0150779
0.0155178
0.0159685
0.0164303
0.0169033
0.0173878
0.0178839
0.0183918
0.0189119
0.0194442
0.0199889
0.0205464
0.0211168
0.0217003
0.0222972
0.0229076
0.0235318
0.0241699
0.0248223
0.0254891
0.0261706
0.0268669
0.0275784
0.0283051
0.0290474
0.0298054
0.0305794
0.0313696
0.0321762
0.0329994
0.0338395
0.0346967
0.0355711
0.0364631
0.0373728
0.0383004
0.0392461
0.0402103
0.0411929
0.0421944
0.0432149
0.0442545
0.0453135
0.0463921
0.0474905
0.0486089
0.0497474
0.0509063
0.0520857
0.0532859
0.054507
0.0557491
0.0570125
0.0582973
0.0596037
0.0609318
0.0622818
0.0636538
0.065048
0.0664646
0.0679036
0.0693652
0.0708495
0.0723566
0.0738866
0.0754397
0.0770159
0.0786154
0.0802382
0.0818843
0.083554
0.0852471
0.0869639
0.0887043
0.0904684
0.0922562
0.0940677
0.095903
0.0977621
0.099645
0.101552
0.103482
0.105436
0.107414
0.109415
0.11144
0.113489
0.115561
0.117656
0.119775
0.121917
0.124082
0.126269
0.12848
0.130713
0.132969
0.135247
0.137548
0.13987
0.142214
0.14458
0.146967
0.149375
0.151804
0.154253
0.156723
0.159213
0.161723
0.164252
0.1668
0.169367
0.171953
0.174557
0.177178
0.179817
0.182473
0.185145
0.187834
0.190539
0.193259
0.195993
0.198742
0.201506
0.204282
0.207072
0.209874
0.212688
0.215514
0.21835
0.221197
0.224053
0.226919
0.229794
0.232677
0.235567
0.238464
0.241367
0.244276
0.247189
0.250108
0.253029
0.255954
0.258881
0.26181
0.26474
0.267669
0.270599
0.273527
0.276454
0.279377
0.282298
0.285214
0.288125
0.291031
0.29393
0.296823
0.299707
0.302583
0.305449
0.308305
0.311149
0.313982
0.316803
0.31961
0.322403
0.32518
0.327942
0.330688
0.333416
0.336125
0.338816
0.341487
0.344137
0.346766
0.349372
0.351956
0.354516
0.357051
0.35956
0.362044
0.364501
0.366929
0.36933
0.371701
0.374042
0.376352
0.378631
0.380878
0.383091
0.385271
0.387416
0.389527
0.391601
0.393639
0.39564
0.397602
0.399527
0.401412
0.403257
0.405062
0.406825
0.408547
0.410227
0.411864
0.413458
0.415007
0.416512
0.417973
0.419387
0.420756
0.422078
0.423353
0.424581
0.425761
0.426892
0.427975
0.429009
0.429994
0.430929
0.431813
0.432648
0.433431
0.434164
0.434846
0.435476
0.436054
0.43658
0.437055
0.437477
0.437846
0.438163
0.438428
0.438639
0.438798
0.438904
0.438957
0.438957
0.438904
0.438798
0.438639
0.438428
0.438163
0.437846
0.437477
0.437055
0.43658
0.436054
0.435476
0.434846
0.434164
0.433431
0.432648
0.431813
0.430929
0.429994
0.429009
0.427975
0.426892
0.425761
0.424581
0.423353
0.422078
0.420756
0.419387
0.417973
0.416512
0.415007
0.413458
0.411864
0.410227
0.408547
0.406825
0.405062
0.403257
0.401412
0.399527
0.397602
0.39564
0.393639
0.391601
0.389527
0.387416
0.385271
0.383091
0.380878
0.378631
0.376352
0.374042
0.371701
0.36933
0.366929
0.364501
0.362044
0.35956
0.357051
0.354516
0.351956
0.349372
0.346766
0.344137
0.341487
0.338816
0.336125
0.333416
0.330688
0.327942
0.32518
0.322403
0.31961
0.316803
0.313982
0.311149
0.308305
0.305449
0.302583
0.299707
0.296823
0.29393
0.291031
0.288125
0.285214
0.282298
0.279377
0.276454
0.273527
0.270599
0.267669
0.26474
0.26181
0.258881
0.255954
0.253029
0.250108
0.247189
0.244276
0.241367
0.238464
0.235567
0.232677
0.229794
0.226919
0.224053
0.221197
0.21835
0.215514
0.212688
0.209874
0.207072
0.204282
0.201506
0.198742
0.195993
0.193259
0.190539
0.187834
0.185145
0.182473
0.179817
0.177178
0.174557
0.171953
0.169367
0.1668
0.164252
0.161723
0.159213
0.156723
0.154253
0.151804
0.149375
0.146967
0.14458
0.142214
0.13987
0.137548
0.135247
0.132969
0.130713
0.12848
0.126269
0.124082
0.121917
0.119775
0.117656
0.115561
0.113489
0.11144
0.109415
0.107414
0.105436
0.103482
0.101552
0.099645
0.0977621
0.095903
0.0940677
0.0922562
0.0904684
0.0887043
0.0869639
0.0852471
0.083554
0.0818843
0.0802382
0.0786154
0.0770159
0.0754397
0.0738866
0.0723566
0.0708495
0.0693652
0.0679036
0.0664646
0.065048
0.0636538
0.0622818
0.0609318
0.0596037
0.0582973
0.0570125
0.0557491
0.054507
0.0532859
0.0520857
0.0509063
0.0497474
0.0486089
0.0474905
0.0463921
0.0453135
0.0442545
0.0432149
0.0421944
0.0411929
0.0402103
0.0392461
0.0383004
0.0373728
0.0364631
0.0355711
0.0346967
0.0338395
0.0329994
0.0321762
0.0313696
0.0305794
0.0298054
0.0290474
0.0283051
0.0275784
0.0268669
0.0261706
0.0254891
0.0248223
0.0241699
0.0235318
0.0229076
0.0222972
0.0217003
0.0211168
0.0205464
0.0199889
0.0194442
0.0189119
0.0183918
0.0178839
0.0173878
0.0169033
0.0164303
0.0159685
0.0155178
0.0150779
0.0146486
0.0142298
0.0138212
0.0134227
0.013034
0.012655
0.0122855
0.0119252
0.0115741
0.0112319
0.0108985
0.0105736
0.0102572
0.0099489
0.00964871
0.00935639
0.0090718
0.00879475
0.0085251
0.00826267
0.00800732
0.00775888
0.0075172
0.00728214
0.00705354
0.00683125
0.00661514
0.00640506
0.00620087
0.00600243
0.00580961
0.00562228
0.0054403
0.00526355
0.0050919
0.00492523
0.00476341
0.00460632
0.00445386
0.0043059
0.00416232
0.00402303
0.00388791
0.00375685
0.00362975
0.00350651
0.00338703
0.0032712
0.00315894
0.00305014
0.00294471
0.00284257
0.00274363
0.0026478
0.00255499
0.00246512
0.00237811
0.00229388
0.00221236
0.00213346
0.00205711
0.00198325
0.00191179
0.00184268
0.00177584
0.00171121
0.00164872
0.00158831
0.00152992
0.00147349
0.00141896
0.00136628
0.00131538
0.00126622
0.00121875
0.0011729
0.00112864
0.0010859
0.00104466
0.00100485
0.000966434
0.00092937
0.000893614
0.000859125
0.000825861
0.000793785
0.000762857
0.000733041
0.000704301
0.000676601
0.000649909
0.000624189
0.000599411
0.000575544
0.000552556
0.000530419
0.000509104
0.000488583
0.00046883
0.000449818
0.000431522
0.000413917
0.00039698
0.000380687
0.000365016
0.000349946
0.000335455
0.000321524
0.000308131
0.000295259
0.000282888
0.000271001
0.00025958
0.000248609
0.000238071
0.000227951
0.000218233
0.000208902
0.000199945
0.000191348
0.000183096
0.000175179
0.000167582
0.000160294
0.000153303
0.000146599
0.000140169
0.000134005
0.000128095
0.000122431
0.000117001
0.000111799
0.000106813
0.000102038
9.74627e-05
9.30811e-05
8.8885e-05
8.48672e-05
8.10207e-05
7.73385e-05
7.38143e-05
7.04416e-05
6.72144e-05
6.41268e-05
6.11732e-05
5.83482e-05
5.56465e-05
5.30631e-05
5.05931e-05
4.82319e-05
4.5975e-05
4.38181e-05
4.1757e-05
3.97877e-05
3.79065e-05
3.61095e-05
3.43934e-05
3.27546e-05
3.11898e-05
2.9696e-05
2.82701e-05
2.69093e-05
2.56106e-05
2.43715e-05
2.31894e-05
2.20617e-05
2.09862e-05
1.99606e-05
1.89826e-05
1.80503e-05
1.71615e-05
1.63144e-05
1.55071e-05
1.47379e-05
1.4005e-05
1.33069e-05
1.26419e-05
1.20086e-05
1.14056e-05
1.08315e-05
1.02849e-05
9.76472e-06
9.26962e-06
8.7985e-06
8.35025e-06
7.92383e-06
7.51822e-06
7.13246e-06
6.76563e-06
6.41684e-06
6.08527e-06
5.77009e-06
5.47054e-06
5.18588e-06
4.91542e-06
4.65847e-06
4.4144e-06
4.18259e-06
3.96246e-06
3.75345e-06
3.55502e-06
3.36667e-06
3.18791e-06
3.01827e-06
2.85731e-06
2.70462e-06
2.55978e-06
2.42242e-06
2.29216e-06
2.16866e-06
2.05159e-06
1.94063e-06
1.83547e-06
1.73584e-06
1.64145e-06
1.55204e-06
1.46737e-06
1.3872e-06
1.3113e-06
1.23947e-06
1.17149e-06
1.10718e-06
1.04634e-06
9.88811e-07
9.34419e-07
8.83008e-07
8.34427e-07
7.88534e-07
7.45195e-07
7.0428e-07
6.65668e-07
6.29244e-07
5.94899e-07
5.62529e-07
5.32036e-07
5.03329e-07
4.76318e-07
4.50923e-07
4.27063e-07
4.04667e-07
3.83664e-07
3.63989e-07
3.45581e-07
3.28383e-07
3.12339e-07
2.974e-07
2.83518e-07
2.7065e-07
2.58754e-07
2.47792e-07
2.3773e-07
2.28535e-07
2.20177e-07
2.1263e-07
2.0587e-07
1.99873e-07
1.94622e-07
1.90099e-07
1.86289e-07
1.8318e-07
1.80761e-07
1.79026e-07
1.77968e-07
1.77584e-07
)
;

boundaryField
{
    sides
    {
        type            zeroGradient;
    }
    empty
    {
        type            empty;
    }
}


// ************************************************************************* //
