/*--------------------------------*- C++ -*----------------------------------*\
| =========                 |                                                 |
| \\      /  F ield         | OpenFOAM: The Open Source CFD Toolbox           |
|  \\    /   O peration     | Version:  2312                                  |
|   \\  /    A nd           | Website:  www.openfoam.com                      |
|    \\/     M anipulation  |                                                 |
\*---------------------------------------------------------------------------*/
FoamFile
{
    version     2.0;
    format      ascii;
    arch        "LSB;label=32;scalar=64";
    class       volScalarField;
    location    "0.9";
    object      T;
}
// * * * * * * * * * * * * * * * * * * * * * * * * * * * * * * * * * * * * * //

dimensions      [0 0 0 1 0 0 0];

internalField   nonuniform List<scalar> 
1000
(
1.92676e-25
1.98796e-25
2.15955e-25
2.45074e-25
2.87716e-25
3.46163e-25
4.23535e-25
5.23956e-25
6.52758e-25
8.16758e-25
1.02461e-24
1.28723e-24
1.61837e-24
2.03529e-24
2.55966e-24
3.2186e-24
4.04606e-24
5.08449e-24
6.38697e-24
8.01976e-24
1.00656e-23
1.26278e-23
1.5835e-23
1.98478e-23
2.48661e-23
3.11389e-23
3.89763e-23
4.87636e-23
6.09806e-23
7.6223e-23
9.52313e-23
1.18925e-22
1.48444e-22
1.85205e-22
2.30961e-22
2.87889e-22
3.58682e-22
4.46674e-22
5.55994e-22
6.91747e-22
8.60244e-22
1.06928e-21
1.3285e-21
1.64979e-21
2.04782e-21
2.54069e-21
3.1507e-21
3.90535e-21
4.83849e-21
5.99177e-21
7.41647e-21
9.1756e-21
1.13467e-20
1.40248e-20
1.7327e-20
2.13965e-20
2.64094e-20
3.25813e-20
4.01767e-20
4.95194e-20
6.10057e-20
7.51209e-20
9.24582e-20
1.13743e-19
1.39861e-19
1.71896e-19
2.11167e-19
2.59288e-19
3.18223e-19
3.90367e-19
4.78641e-19
5.86596e-19
7.18558e-19
8.79787e-19
1.07668e-18
1.31701e-18
1.61021e-18
1.96774e-18
2.40352e-18
2.9344e-18
3.58082e-18
4.36756e-18
5.32459e-18
6.48823e-18
7.90237e-18
9.62011e-18
1.17056e-17
1.42364e-17
1.7306e-17
2.10273e-17
2.55366e-17
3.09979e-17
3.76091e-17
4.56082e-17
5.52821e-17
6.69755e-17
8.11031e-17
9.81633e-17
1.18755e-16
1.43596e-16
1.7355e-16
2.0965e-16
2.53137e-16
3.05495e-16
3.68505e-16
4.44295e-16
5.35412e-16
6.44902e-16
7.76405e-16
9.34269e-16
1.12368e-15
1.35084e-15
1.62312e-15
1.94934e-15
2.33998e-15
2.80754e-15
3.36687e-15
4.03565e-15
4.83492e-15
5.78965e-15
6.92952e-15
8.28973e-15
9.91209e-15
1.18461e-14
1.41506e-14
1.68951e-14
2.0162e-14
2.40487e-14
2.86706e-14
3.4164e-14
4.06899e-14
4.84384e-14
5.76342e-14
6.85418e-14
8.14737e-14
9.67976e-14
1.14947e-13
1.36432e-13
1.61852e-13
1.91915e-13
2.27448e-13
2.69427e-13
3.18996e-13
3.77497e-13
4.46506e-13
5.27869e-13
6.23747e-13
7.36675e-13
8.69615e-13
1.02604e-12
1.20999e-12
1.42622e-12
1.68025e-12
1.97854e-12
2.32863e-12
2.7393e-12
3.22079e-12
3.78502e-12
4.44587e-12
5.2195e-12
6.1247e-12
7.18328e-12
8.42063e-12
9.86617e-12
1.15541e-11
1.3524e-11
1.58219e-11
1.85009e-11
2.16227e-11
2.52585e-11
2.9491e-11
3.44154e-11
4.0142e-11
4.67979e-11
5.453e-11
6.35078e-11
7.39264e-11
8.60109e-11
1.00021e-10
1.16254e-10
1.35053e-10
1.56814e-10
1.81989e-10
2.111e-10
2.44743e-10
2.83605e-10
3.28472e-10
3.80245e-10
4.39956e-10
5.08787e-10
5.88089e-10
6.79408e-10
7.8451e-10
9.05412e-10
1.04442e-09
1.20416e-09
1.38762e-09
1.59823e-09
1.83987e-09
2.11697e-09
2.43457e-09
2.7984e-09
3.21497e-09
3.69168e-09
4.23691e-09
4.86021e-09
5.57236e-09
6.38562e-09
7.31385e-09
8.37276e-09
9.58009e-09
1.09559e-08
1.2523e-08
1.4307e-08
1.63367e-08
1.86449e-08
2.12684e-08
2.42486e-08
2.76324e-08
3.14723e-08
3.58275e-08
4.07646e-08
4.63584e-08
5.26929e-08
5.98624e-08
6.79726e-08
7.71422e-08
8.75041e-08
9.92071e-08
1.12418e-07
1.27322e-07
1.4413e-07
1.63072e-07
1.84409e-07
2.08432e-07
2.35464e-07
2.65865e-07
3.00037e-07
3.38429e-07
3.81537e-07
4.29917e-07
4.84183e-07
5.45019e-07
6.13185e-07
6.89523e-07
7.74967e-07
8.70552e-07
9.77426e-07
1.09686e-06
1.23025e-06
1.37916e-06
1.5453e-06
1.73057e-06
1.93705e-06
2.16706e-06
2.42313e-06
2.70808e-06
3.02497e-06
3.37722e-06
3.76855e-06
4.20307e-06
4.68528e-06
5.22014e-06
5.81306e-06
6.47001e-06
7.19751e-06
8.00269e-06
8.89339e-06
9.87814e-06
1.09663e-05
1.21681e-05
1.34946e-05
1.49581e-05
1.65718e-05
1.83502e-05
2.0309e-05
2.24653e-05
2.48378e-05
2.74467e-05
3.03142e-05
3.3464e-05
3.69222e-05
4.07168e-05
4.48784e-05
4.944e-05
5.44373e-05
5.99089e-05
6.58968e-05
7.24459e-05
7.96051e-05
8.74269e-05
9.59681e-05
0.00010529
0.000115458
0.000126543
0.000138621
0.000151774
0.00016609
0.000181664
0.000198596
0.000216996
0.000236979
0.000258669
0.000282201
0.000307716
0.000335367
0.000365316
0.000397736
0.000432812
0.000470741
0.000511733
0.000556011
0.000603812
0.000655389
0.000711009
0.000770956
0.000835533
0.000905058
0.00097987
0.00106033
0.00114681
0.00123971
0.00133946
0.0014465
0.00156131
0.00168437
0.00181621
0.00195738
0.00210846
0.00227005
0.00244279
0.00262735
0.00282442
0.00303475
0.00325909
0.00349826
0.00375309
0.00402445
0.00431327
0.0046205
0.00494712
0.00529418
0.00566275
0.00605394
0.00646892
0.0069089
0.00737511
0.00786886
0.00839148
0.00894436
0.00952891
0.0101466
0.010799
0.0114877
0.0122142
0.0129802
0.0137874
0.0146377
0.0155326
0.0164742
0.0174643
0.0185047
0.0195975
0.0207447
0.0219482
0.0232103
0.0245329
0.0259182
0.0273684
0.0288857
0.0304723
0.0321304
0.0338624
0.0356705
0.0375569
0.039524
0.0415742
0.0437097
0.0459328
0.0482458
0.0506511
0.0531509
0.0557475
0.0584431
0.06124
0.0641403
0.0671461
0.0702596
0.0734829
0.0768178
0.0802664
0.0838306
0.087512
0.0913125
0.0952337
0.0992771
0.103444
0.107736
0.112155
0.116701
0.121376
0.126179
0.131113
0.136178
0.141375
0.146703
0.152162
0.157754
0.163478
0.169333
0.17532
0.181437
0.187684
0.19406
0.200564
0.207195
0.21395
0.220829
0.227829
0.234949
0.242186
0.249538
0.257002
0.264575
0.272255
0.280038
0.28792
0.295899
0.30397
0.312129
0.320373
0.328697
0.337097
0.345567
0.354104
0.362701
0.371354
0.380059
0.388808
0.397597
0.40642
0.415271
0.424144
0.433033
0.441931
0.450834
0.459734
0.468624
0.477498
0.486351
0.495174
0.503961
0.512705
0.521401
0.53004
0.538616
0.547123
0.555552
0.563899
0.572155
0.580314
0.588369
0.596314
0.604142
0.611846
0.61942
0.626857
0.634152
0.641297
0.648287
0.655116
0.661778
0.668266
0.674577
0.680703
0.686639
0.692382
0.697924
0.703262
0.708391
0.713306
0.718003
0.722478
0.726726
0.730745
0.73453
0.738078
0.741386
0.744451
0.747271
0.749842
0.752163
0.754231
0.756044
0.757602
0.758902
0.759943
0.760725
0.761247
0.761508
0.761508
0.761247
0.760725
0.759943
0.758902
0.757602
0.756044
0.754231
0.752163
0.749842
0.747271
0.744451
0.741386
0.738078
0.73453
0.730745
0.726726
0.722478
0.718003
0.713306
0.708391
0.703262
0.697924
0.692382
0.686639
0.680703
0.674577
0.668266
0.661778
0.655116
0.648287
0.641297
0.634152
0.626857
0.61942
0.611846
0.604142
0.596314
0.588369
0.580314
0.572155
0.563899
0.555552
0.547123
0.538616
0.53004
0.521401
0.512705
0.503961
0.495174
0.486351
0.477498
0.468624
0.459734
0.450834
0.441931
0.433033
0.424144
0.415271
0.40642
0.397597
0.388808
0.380059
0.371354
0.362701
0.354104
0.345567
0.337097
0.328697
0.320373
0.312129
0.30397
0.295899
0.28792
0.280038
0.272255
0.264575
0.257002
0.249538
0.242186
0.234949
0.227829
0.220829
0.21395
0.207195
0.200564
0.19406
0.187684
0.181437
0.17532
0.169333
0.163478
0.157754
0.152162
0.146703
0.141375
0.136178
0.131113
0.126179
0.121376
0.116701
0.112155
0.107736
0.103444
0.0992771
0.0952337
0.0913125
0.087512
0.0838306
0.0802664
0.0768178
0.0734829
0.0702596
0.0671461
0.0641403
0.06124
0.0584431
0.0557475
0.0531509
0.0506511
0.0482458
0.0459328
0.0437097
0.0415742
0.039524
0.0375569
0.0356705
0.0338624
0.0321304
0.0304723
0.0288857
0.0273684
0.0259182
0.0245329
0.0232103
0.0219482
0.0207447
0.0195975
0.0185047
0.0174643
0.0164742
0.0155326
0.0146377
0.0137874
0.0129802
0.0122142
0.0114877
0.010799
0.0101466
0.00952891
0.00894436
0.00839148
0.00786886
0.00737511
0.0069089
0.00646892
0.00605394
0.00566275
0.00529418
0.00494712
0.0046205
0.00431327
0.00402445
0.00375309
0.00349826
0.00325909
0.00303475
0.00282442
0.00262735
0.00244279
0.00227005
0.00210846
0.00195738
0.00181621
0.00168437
0.00156131
0.0014465
0.00133946
0.00123971
0.00114681
0.00106033
0.00097987
0.000905058
0.000835533
0.000770956
0.000711009
0.000655389
0.000603812
0.000556011
0.000511733
0.000470741
0.000432812
0.000397736
0.000365316
0.000335367
0.000307716
0.000282201
0.000258669
0.000236979
0.000216996
0.000198596
0.000181664
0.00016609
0.000151774
0.000138621
0.000126543
0.000115458
0.00010529
9.59681e-05
8.74269e-05
7.96051e-05
7.24459e-05
6.58968e-05
5.99089e-05
5.44373e-05
4.944e-05
4.48784e-05
4.07168e-05
3.69222e-05
3.3464e-05
3.03142e-05
2.74467e-05
2.48378e-05
2.24653e-05
2.0309e-05
1.83502e-05
1.65718e-05
1.49581e-05
1.34946e-05
1.21681e-05
1.09663e-05
9.87814e-06
8.89339e-06
8.00269e-06
7.19751e-06
6.47001e-06
5.81306e-06
5.22014e-06
4.68528e-06
4.20307e-06
3.76855e-06
3.37722e-06
3.02497e-06
2.70808e-06
2.42313e-06
2.16706e-06
1.93705e-06
1.73057e-06
1.5453e-06
1.37916e-06
1.23025e-06
1.09686e-06
9.77426e-07
8.70552e-07
7.74967e-07
6.89523e-07
6.13185e-07
5.45019e-07
4.84183e-07
4.29917e-07
3.81537e-07
3.38429e-07
3.00037e-07
2.65865e-07
2.35464e-07
2.08432e-07
1.84409e-07
1.63072e-07
1.4413e-07
1.27322e-07
1.12418e-07
9.92071e-08
8.75041e-08
7.71422e-08
6.79726e-08
5.98624e-08
5.26929e-08
4.63584e-08
4.07646e-08
3.58275e-08
3.14723e-08
2.76324e-08
2.42486e-08
2.12684e-08
1.86449e-08
1.63367e-08
1.4307e-08
1.2523e-08
1.09559e-08
9.58009e-09
8.37276e-09
7.31385e-09
6.38562e-09
5.57236e-09
4.86021e-09
4.23691e-09
3.69168e-09
3.21497e-09
2.7984e-09
2.43457e-09
2.11697e-09
1.83987e-09
1.59823e-09
1.38762e-09
1.20416e-09
1.04442e-09
9.05412e-10
7.8451e-10
6.79408e-10
5.88089e-10
5.08787e-10
4.39956e-10
3.80245e-10
3.28472e-10
2.83605e-10
2.44743e-10
2.111e-10
1.81989e-10
1.56814e-10
1.35053e-10
1.16254e-10
1.00021e-10
8.60109e-11
7.39264e-11
6.35078e-11
5.453e-11
4.67979e-11
4.0142e-11
3.44154e-11
2.9491e-11
2.52585e-11
2.16227e-11
1.85009e-11
1.58219e-11
1.3524e-11
1.15541e-11
9.86617e-12
8.42063e-12
7.18328e-12
6.1247e-12
5.2195e-12
4.44587e-12
3.78502e-12
3.22079e-12
2.7393e-12
2.32863e-12
1.97854e-12
1.68025e-12
1.42622e-12
1.20999e-12
1.02604e-12
8.69615e-13
7.36675e-13
6.23747e-13
5.27869e-13
4.46506e-13
3.77497e-13
3.18996e-13
2.69427e-13
2.27448e-13
1.91915e-13
1.61852e-13
1.36432e-13
1.14947e-13
9.67976e-14
8.14737e-14
6.85418e-14
5.76342e-14
4.84384e-14
4.06899e-14
3.4164e-14
2.86706e-14
2.40487e-14
2.0162e-14
1.68951e-14
1.41506e-14
1.18461e-14
9.91209e-15
8.28973e-15
6.92952e-15
5.78965e-15
4.83492e-15
4.03565e-15
3.36687e-15
2.80754e-15
2.33998e-15
1.94934e-15
1.62312e-15
1.35084e-15
1.12368e-15
9.34269e-16
7.76405e-16
6.44902e-16
5.35412e-16
4.44295e-16
3.68505e-16
3.05495e-16
2.53137e-16
2.0965e-16
1.7355e-16
1.43596e-16
1.18755e-16
9.81633e-17
8.11031e-17
6.69755e-17
5.52821e-17
4.56082e-17
3.76091e-17
3.09979e-17
2.55366e-17
2.10273e-17
1.7306e-17
1.42364e-17
1.17056e-17
9.62011e-18
7.90237e-18
6.48823e-18
5.32459e-18
4.36756e-18
3.58082e-18
2.9344e-18
2.40352e-18
1.96774e-18
1.61021e-18
1.31701e-18
1.07668e-18
8.79787e-19
7.18558e-19
5.86596e-19
4.78641e-19
3.90367e-19
3.18223e-19
2.59288e-19
2.11167e-19
1.71896e-19
1.39861e-19
1.13743e-19
9.24582e-20
7.51209e-20
6.10057e-20
4.95194e-20
4.01767e-20
3.25813e-20
2.64094e-20
2.13965e-20
1.7327e-20
1.40248e-20
1.13467e-20
9.1756e-21
7.41647e-21
5.99177e-21
4.83849e-21
3.90535e-21
3.1507e-21
2.54069e-21
2.04782e-21
1.64979e-21
1.3285e-21
1.06928e-21
8.60244e-22
6.91747e-22
5.55994e-22
4.46674e-22
3.58682e-22
2.87889e-22
2.30961e-22
1.85205e-22
1.48444e-22
1.18925e-22
9.52313e-23
7.6223e-23
6.09806e-23
4.87636e-23
3.89763e-23
3.11389e-23
2.48661e-23
1.98478e-23
1.5835e-23
1.26278e-23
1.00656e-23
8.01976e-24
6.38697e-24
5.08449e-24
4.04606e-24
3.2186e-24
2.55966e-24
2.03529e-24
1.61837e-24
1.28723e-24
1.02461e-24
8.16758e-25
6.52758e-25
5.23956e-25
4.23535e-25
3.46163e-25
2.87716e-25
2.45074e-25
2.15955e-25
1.98796e-25
1.92676e-25
)
;

boundaryField
{
    sides
    {
        type            zeroGradient;
    }
    empty
    {
        type            empty;
    }
}


// ************************************************************************* //
