/*--------------------------------*- C++ -*----------------------------------*\
| =========                 |                                                 |
| \\      /  F ield         | OpenFOAM: The Open Source CFD Toolbox           |
|  \\    /   O peration     | Version:  2312                                  |
|   \\  /    A nd           | Website:  www.openfoam.com                      |
|    \\/     M anipulation  |                                                 |
\*---------------------------------------------------------------------------*/
FoamFile
{
    version     2.0;
    format      ascii;
    arch        "LSB;label=32;scalar=64";
    class       volScalarField;
    location    "3.7";
    object      T;
}
// * * * * * * * * * * * * * * * * * * * * * * * * * * * * * * * * * * * * * //

dimensions      [0 0 0 1 0 0 0];

internalField   nonuniform List<scalar> 
1000
(
3.19075e-85
5.25789e-85
1.08175e-84
2.35324e-84
5.17529e-84
1.13948e-83
2.50673e-83
5.50757e-83
1.20845e-82
2.64792e-82
5.79409e-82
1.2661e-81
2.76285e-81
6.0207e-81
1.3102e-80
2.84728e-80
6.17905e-80
1.3391e-79
2.89803e-79
6.26309e-79
1.35168e-78
2.91308e-78
6.26941e-78
1.3474e-77
2.89173e-77
6.19746e-77
1.32636e-76
2.83465e-76
6.04963e-76
1.28928e-75
2.74382e-75
5.83111e-75
1.23747e-74
2.62243e-74
5.54956e-74
1.17273e-73
2.4747e-73
5.21471e-73
1.09729e-72
2.30564e-72
4.83776e-72
1.01362e-71
2.12075e-71
4.43077e-71
9.24372e-71
1.92571e-70
4.00602e-70
8.32164e-70
1.72615e-69
3.57539e-69
7.39504e-69
1.52732e-68
3.14985e-68
6.48666e-68
1.33389e-67
2.73899e-67
5.616e-67
1.14982e-66
2.35073e-66
4.79886e-66
9.78225e-66
1.99115e-65
4.04698e-65
8.21337e-65
1.66446e-64
3.3681e-64
6.80545e-64
1.37305e-63
2.76616e-63
5.56446e-63
1.1177e-62
2.24174e-62
4.4895e-62
8.97772e-62
1.79261e-61
3.57404e-61
7.11516e-61
1.41436e-60
2.80728e-60
5.56366e-60
1.10099e-59
2.17547e-59
4.29211e-59
8.45538e-59
1.66319e-58
3.26657e-58
6.40601e-58
1.25437e-57
2.45247e-57
4.78767e-57
9.33221e-57
1.81628e-56
3.52957e-56
6.84851e-56
1.32681e-55
2.56658e-55
4.95722e-55
9.55992e-55
1.84079e-54
3.53905e-54
6.79361e-54
1.3021e-53
2.49184e-53
4.76129e-53
9.08357e-53
1.73028e-52
3.29081e-52
6.24906e-52
1.18482e-51
2.24291e-51
4.23933e-51
8.00026e-51
1.50741e-50
2.83584e-50
5.32661e-50
9.98939e-50
1.87045e-49
3.49679e-49
6.52694e-49
1.21637e-48
2.26327e-48
4.20458e-48
7.79867e-48
1.44421e-47
2.67026e-47
4.92931e-47
9.08508e-47
1.67178e-46
3.07143e-46
5.63388e-46
1.03177e-45
1.88652e-45
3.44385e-45
6.27672e-45
1.14215e-44
2.07499e-44
3.76367e-44
6.81565e-44
1.23226e-43
2.22432e-43
4.00857e-43
7.21238e-43
1.29558e-42
2.32352e-42
4.16028e-42
7.43691e-42
1.32726e-41
2.36489e-41
4.20686e-41
7.47128e-41
1.32471e-40
2.34497e-40
4.14421e-40
7.31194e-40
1.28798e-39
2.26503e-39
3.97668e-39
6.97032e-39
1.21974e-38
2.1309e-38
3.71657e-38
6.47144e-38
1.12497e-37
1.95234e-37
3.38261e-37
5.85092e-37
1.01035e-36
1.7418e-36
2.99776e-36
5.15074e-36
8.83518e-36
1.51298e-35
2.58657e-35
4.41453e-35
7.52167e-35
1.27942e-34
2.1726e-34
3.68311e-34
6.23327e-34
1.05313e-33
1.77629e-33
2.99095e-33
5.02769e-33
8.43703e-33
1.41342e-32
2.36383e-32
3.94656e-32
6.57782e-32
1.09447e-31
1.81795e-31
3.01451e-31
4.99008e-31
8.24619e-31
1.36036e-30
2.24031e-30
3.68311e-30
6.04467e-30
9.90336e-30
1.61973e-29
2.64455e-29
4.31032e-29
7.0132e-29
1.13912e-28
1.84701e-28
2.9896e-28
4.83062e-28
7.79178e-28
1.25462e-27
2.01666e-27
3.23589e-27
5.18317e-27
8.28776e-27
1.32287e-26
2.10784e-26
3.3527e-26
5.3234e-26
8.4376e-26
1.33501e-25
2.10856e-25
3.32444e-25
5.23222e-25
8.22027e-25
1.28919e-24
2.01827e-24
3.15407e-24
4.92032e-24
7.66201e-24
1.19102e-23
1.8481e-23
2.86258e-23
4.42603e-23
6.83118e-23
1.05245e-22
1.61857e-22
2.48475e-22
3.80765e-22
5.82441e-22
8.89339e-22
1.35551e-21
2.06232e-21
3.13205e-21
4.7481e-21
7.185e-21
1.0853e-20
1.6364e-20
2.46287e-20
3.70007e-20
5.54869e-20
8.30586e-20
1.24105e-19
1.851e-19
2.75572e-19
4.09517e-19
6.07462e-19
8.99444e-19
1.32934e-18
1.96114e-18
2.88792e-18
4.2449e-18
6.22811e-18
9.12114e-18
1.33335e-17
1.94557e-17
2.83367e-17
4.11958e-17
5.97805e-17
8.65897e-17
1.25191e-16
1.80667e-16
2.60247e-16
3.74187e-16
5.3702e-16
7.69287e-16
1.09998e-15
1.56991e-15
2.23645e-15
3.1801e-15
4.51351e-15
6.39415e-15
9.04157e-15
1.27614e-14
1.7978e-14
2.52801e-14
3.54817e-14
4.97075e-14
6.9507e-14
9.70116e-14
1.35147e-13
1.87923e-13
2.60819e-13
3.61314e-13
4.99595e-13
6.89503e-13
9.49817e-13
1.30596e-12
1.79226e-12
2.45504e-12
3.35659e-12
4.58059e-12
6.23917e-12
8.48232e-12
1.15102e-11
1.55896e-11
2.10749e-11
2.84365e-11
3.82972e-11
5.14798e-11
6.90695e-11
9.2494e-11
1.23629e-10
1.64931e-10
2.19616e-10
2.91878e-10
3.87183e-10
5.12634e-10
6.77445e-10
8.93544e-10
1.17634e-09
1.5457e-09
2.02718e-09
2.65359e-09
3.46696e-09
4.52103e-09
5.88437e-09
7.64425e-09
9.91158e-09
1.2827e-08
1.65683e-08
2.136e-08
2.74852e-08
3.52994e-08
4.52489e-08
5.78921e-08
7.39268e-08
9.42226e-08
1.19861e-07
1.52186e-07
1.92859e-07
2.43936e-07
3.07951e-07
3.88023e-07
4.87982e-07
6.1252e-07
7.67373e-07
9.59539e-07
1.19754e-06
1.49171e-06
1.8546e-06
2.30137e-06
2.85031e-06
3.52345e-06
4.34724e-06
5.3534e-06
6.57985e-06
8.07184e-06
9.88324e-06
1.20781e-05
1.47321e-05
1.79352e-05
2.17929e-05
2.64301e-05
3.19928e-05
3.86525e-05
4.66097e-05
5.60979e-05
6.73892e-05
8.07992e-05
9.66936e-05
0.000115495
0.00013769
0.000163838
0.000194583
0.000230659
0.000272906
0.000322279
0.000379865
0.000446894
0.000524757
0.000615024
0.00071946
0.000840044
0.000978992
0.00113878
0.00132216
0.00153219
0.00177225
0.0020461
0.00235784
0.00271201
0.00311356
0.00356791
0.00408097
0.00465914
0.00530937
0.00603915
0.00685656
0.00777026
0.00878952
0.00992422
0.0111849
0.0125826
0.0141293
0.0158371
0.0177191
0.0197889
0.0220605
0.0245486
0.0272682
0.0302349
0.0334644
0.0369729
0.0407767
0.0448924
0.0493363
0.0541249
0.0592744
0.0648007
0.0707193
0.077045
0.0837921
0.090974
0.098603
0.106691
0.115246
0.12428
0.133797
0.143804
0.154305
0.165301
0.176792
0.188775
0.201247
0.214201
0.227628
0.241516
0.255853
0.270621
0.285804
0.301381
0.317329
0.333624
0.350239
0.367147
0.384316
0.401715
0.419311
0.43707
0.454958
0.472936
0.490971
0.509023
0.527057
0.545035
0.562921
0.58068
0.598274
0.615672
0.632838
0.649742
0.666354
0.682644
0.698587
0.714157
0.729332
0.744091
0.758416
0.772291
0.785702
0.798637
0.811087
0.823045
0.834505
0.845465
0.855923
0.865881
0.875341
0.884307
0.892785
0.900782
0.908307
0.915368
0.921976
0.928142
0.933877
0.939193
0.944103
0.948618
0.95275
0.956511
0.959914
0.962968
0.965684
0.968073
0.970142
0.9719
0.973355
0.974511
0.975373
0.975947
0.976232
0.976232
0.975947
0.975373
0.974511
0.973355
0.9719
0.970142
0.968073
0.965684
0.962968
0.959914
0.956511
0.95275
0.948618
0.944103
0.939193
0.933877
0.928142
0.921976
0.915368
0.908307
0.900782
0.892785
0.884307
0.875341
0.865881
0.855923
0.845465
0.834505
0.823045
0.811087
0.798637
0.785702
0.772291
0.758416
0.744091
0.729332
0.714157
0.698587
0.682644
0.666354
0.649742
0.632838
0.615672
0.598274
0.58068
0.562921
0.545035
0.527057
0.509023
0.490971
0.472936
0.454958
0.43707
0.419311
0.401715
0.384316
0.367147
0.350239
0.333624
0.317329
0.301381
0.285804
0.270621
0.255853
0.241516
0.227628
0.214201
0.201247
0.188775
0.176792
0.165301
0.154305
0.143804
0.133797
0.12428
0.115246
0.106691
0.098603
0.090974
0.0837921
0.077045
0.0707193
0.0648007
0.0592744
0.0541249
0.0493363
0.0448924
0.0407767
0.0369729
0.0334644
0.0302349
0.0272682
0.0245486
0.0220605
0.0197889
0.0177191
0.0158371
0.0141293
0.0125826
0.0111849
0.00992422
0.00878952
0.00777026
0.00685656
0.00603915
0.00530937
0.00465914
0.00408097
0.00356791
0.00311356
0.00271201
0.00235784
0.0020461
0.00177225
0.00153219
0.00132216
0.00113878
0.000978992
0.000840044
0.00071946
0.000615024
0.000524757
0.000446894
0.000379865
0.000322279
0.000272906
0.000230659
0.000194583
0.000163838
0.00013769
0.000115495
9.66936e-05
8.07992e-05
6.73892e-05
5.60979e-05
4.66097e-05
3.86525e-05
3.19928e-05
2.64301e-05
2.17929e-05
1.79352e-05
1.47321e-05
1.20781e-05
9.88324e-06
8.07184e-06
6.57985e-06
5.3534e-06
4.34724e-06
3.52345e-06
2.85031e-06
2.30137e-06
1.8546e-06
1.49171e-06
1.19754e-06
9.59539e-07
7.67373e-07
6.1252e-07
4.87982e-07
3.88023e-07
3.07951e-07
2.43936e-07
1.92859e-07
1.52186e-07
1.19861e-07
9.42226e-08
7.39268e-08
5.78921e-08
4.52489e-08
3.52994e-08
2.74852e-08
2.136e-08
1.65683e-08
1.2827e-08
9.91158e-09
7.64425e-09
5.88437e-09
4.52103e-09
3.46696e-09
2.65359e-09
2.02718e-09
1.5457e-09
1.17634e-09
8.93544e-10
6.77445e-10
5.12634e-10
3.87183e-10
2.91878e-10
2.19616e-10
1.64931e-10
1.23629e-10
9.2494e-11
6.90695e-11
5.14798e-11
3.82972e-11
2.84365e-11
2.10749e-11
1.55896e-11
1.15102e-11
8.48232e-12
6.23917e-12
4.58059e-12
3.35659e-12
2.45504e-12
1.79226e-12
1.30596e-12
9.49817e-13
6.89503e-13
4.99595e-13
3.61314e-13
2.60819e-13
1.87923e-13
1.35147e-13
9.70116e-14
6.9507e-14
4.97075e-14
3.54817e-14
2.52801e-14
1.7978e-14
1.27614e-14
9.04157e-15
6.39415e-15
4.51351e-15
3.1801e-15
2.23645e-15
1.56991e-15
1.09998e-15
7.69287e-16
5.3702e-16
3.74187e-16
2.60247e-16
1.80667e-16
1.25191e-16
8.65897e-17
5.97805e-17
4.11958e-17
2.83367e-17
1.94557e-17
1.33335e-17
9.12114e-18
6.22811e-18
4.2449e-18
2.88792e-18
1.96114e-18
1.32934e-18
8.99444e-19
6.07462e-19
4.09517e-19
2.75572e-19
1.851e-19
1.24105e-19
8.30586e-20
5.54869e-20
3.70007e-20
2.46287e-20
1.6364e-20
1.0853e-20
7.185e-21
4.7481e-21
3.13205e-21
2.06232e-21
1.35551e-21
8.89339e-22
5.82441e-22
3.80765e-22
2.48475e-22
1.61857e-22
1.05245e-22
6.83118e-23
4.42603e-23
2.86258e-23
1.8481e-23
1.19102e-23
7.66201e-24
4.92032e-24
3.15407e-24
2.01827e-24
1.28919e-24
8.22027e-25
5.23222e-25
3.32444e-25
2.10856e-25
1.33501e-25
8.4376e-26
5.3234e-26
3.3527e-26
2.10784e-26
1.32287e-26
8.28776e-27
5.18317e-27
3.23589e-27
2.01666e-27
1.25462e-27
7.79178e-28
4.83062e-28
2.9896e-28
1.84701e-28
1.13912e-28
7.0132e-29
4.31032e-29
2.64455e-29
1.61973e-29
9.90336e-30
6.04467e-30
3.68311e-30
2.24031e-30
1.36036e-30
8.24619e-31
4.99008e-31
3.01451e-31
1.81795e-31
1.09447e-31
6.57782e-32
3.94656e-32
2.36383e-32
1.41342e-32
8.43703e-33
5.02769e-33
2.99095e-33
1.77629e-33
1.05313e-33
6.23327e-34
3.68311e-34
2.1726e-34
1.27942e-34
7.52167e-35
4.41453e-35
2.58657e-35
1.51298e-35
8.83518e-36
5.15074e-36
2.99776e-36
1.7418e-36
1.01035e-36
5.85092e-37
3.38261e-37
1.95234e-37
1.12497e-37
6.47144e-38
3.71657e-38
2.1309e-38
1.21974e-38
6.97032e-39
3.97668e-39
2.26503e-39
1.28798e-39
7.31194e-40
4.14421e-40
2.34497e-40
1.32471e-40
7.47128e-41
4.20686e-41
2.36489e-41
1.32726e-41
7.43691e-42
4.16028e-42
2.32352e-42
1.29558e-42
7.21238e-43
4.00857e-43
2.22432e-43
1.23226e-43
6.81565e-44
3.76367e-44
2.07499e-44
1.14215e-44
6.27672e-45
3.44385e-45
1.88652e-45
1.03177e-45
5.63388e-46
3.07143e-46
1.67178e-46
9.08508e-47
4.92931e-47
2.67026e-47
1.44421e-47
7.79867e-48
4.20458e-48
2.26327e-48
1.21637e-48
6.52694e-49
3.49679e-49
1.87045e-49
9.98939e-50
5.32661e-50
2.83584e-50
1.50741e-50
8.00026e-51
4.23933e-51
2.24291e-51
1.18482e-51
6.24906e-52
3.29081e-52
1.73028e-52
9.08357e-53
4.76129e-53
2.49184e-53
1.3021e-53
6.79361e-54
3.53905e-54
1.84079e-54
9.55992e-55
4.95722e-55
2.56658e-55
1.32681e-55
6.84851e-56
3.52957e-56
1.81628e-56
9.33221e-57
4.78767e-57
2.45247e-57
1.25437e-57
6.40601e-58
3.26657e-58
1.66319e-58
8.45538e-59
4.29211e-59
2.17547e-59
1.10099e-59
5.56366e-60
2.80728e-60
1.41436e-60
7.11516e-61
3.57404e-61
1.79261e-61
8.97772e-62
4.4895e-62
2.24174e-62
1.1177e-62
5.56446e-63
2.76616e-63
1.37305e-63
6.80545e-64
3.3681e-64
1.66446e-64
8.21337e-65
4.04698e-65
1.99115e-65
9.78225e-66
4.79886e-66
2.35073e-66
1.14982e-66
5.616e-67
2.73899e-67
1.33389e-67
6.48666e-68
3.14985e-68
1.52732e-68
7.39504e-69
3.57539e-69
1.72615e-69
8.32164e-70
4.00602e-70
1.92571e-70
9.24372e-71
4.43077e-71
2.12075e-71
1.01362e-71
4.83776e-72
2.30564e-72
1.09729e-72
5.21471e-73
2.4747e-73
1.17273e-73
5.54956e-74
2.62243e-74
1.23747e-74
5.83111e-75
2.74382e-75
1.28928e-75
6.04963e-76
2.83465e-76
1.32636e-76
6.19746e-77
2.89173e-77
1.3474e-77
6.26941e-78
2.91308e-78
1.35168e-78
6.26309e-79
2.89803e-79
1.3391e-79
6.17905e-80
2.84728e-80
1.3102e-80
6.0207e-81
2.76285e-81
1.2661e-81
5.79409e-82
2.64792e-82
1.20845e-82
5.50757e-83
2.50673e-83
1.13948e-83
5.17529e-84
2.35324e-84
1.08175e-84
5.25789e-85
3.19075e-85
)
;

boundaryField
{
    sides
    {
        type            zeroGradient;
    }
    empty
    {
        type            empty;
    }
}


// ************************************************************************* //
