/*--------------------------------*- C++ -*----------------------------------*\
| =========                 |                                                 |
| \\      /  F ield         | OpenFOAM: The Open Source CFD Toolbox           |
|  \\    /   O peration     | Version:  2312                                  |
|   \\  /    A nd           | Website:  www.openfoam.com                      |
|    \\/     M anipulation  |                                                 |
\*---------------------------------------------------------------------------*/
FoamFile
{
    version     2.0;
    format      ascii;
    arch        "LSB;label=32;scalar=64";
    class       volScalarField;
    location    "2.9";
    object      T;
}
// * * * * * * * * * * * * * * * * * * * * * * * * * * * * * * * * * * * * * //

dimensions      [0 0 0 1 0 0 0];

internalField   nonuniform List<scalar> 
1000
(
0
0
0
0
0
0
0
0
0
0
0
0
0
0
0
0
0
0
0
0
0
0
0
0
0
0
0
0
0
0
0
0
0
0
0
0
0
0
0
0
0
0
0
0
0
0
0
0
0
0
0
0
0
0
0
0
0
0
0
0
0
0
0
0
0
0
0
0
0
0
0
0
0
0
0
0
0
0
0
0
0
0
0
0
0
0
0
0
0
0
0
0
0
0
0
0
0
0
0
0
0
0
0
0
0
0
0
0
0
0
0
0
0
0
0
0
0
0
0
0
0
0
0
0
0
0
0
0
0
0
0
0
0
0
0
0
0
0
0
0
0
0
0
0
0
0
0
0
0
0
0
0
0
0
0
0
0
0
0
0
0
0
0
0
0
0
0
0
0
0
0
0
0
-4.94066e-324
2.96439e-323
-4.94066e-324
2.96439e-323
-4.94066e-324
2.96439e-323
-4.94066e-324
2.96439e-323
-4.94066e-324
2.96439e-323
-4.94066e-324
2.96439e-323
-4.94066e-324
2.96439e-323
-4.94066e-324
2.96439e-323
-4.94066e-324
2.96439e-323
-4.94066e-324
2.96439e-323
-4.94066e-324
2.96439e-323
-4.94066e-324
2.96439e-323
-4.94066e-324
2.96439e-323
-4.94066e-324
2.96439e-323
-4.94066e-324
2.96439e-323
-4.94066e-324
2.96439e-323
-4.94066e-324
2.96439e-323
-4.94066e-324
2.96439e-323
-4.94066e-324
2.96439e-323
-4.94066e-324
2.96439e-323
-4.94066e-324
2.96439e-323
-4.94066e-324
2.96439e-323
-4.94066e-324
2.96439e-323
-4.94066e-324
2.96439e-323
-4.94066e-324
2.96439e-323
-4.94066e-324
2.96439e-323
-4.94066e-324
2.96439e-323
-4.94066e-324
2.96439e-323
-4.94066e-324
2.96439e-323
-4.94066e-324
2.96439e-323
-4.94066e-324
2.96439e-323
-4.94066e-324
2.96439e-323
-4.94066e-324
2.96439e-323
-4.94066e-324
2.96439e-323
-4.94066e-324
2.96439e-323
-4.94066e-324
2.96439e-323
-4.94066e-324
2.96439e-323
-4.94066e-324
2.96439e-323
-4.94066e-324
2.96439e-323
-4.94066e-324
2.96439e-323
-4.94066e-324
9.88131e-323
-4.89125e-322
1.50739e-320
-8.79387e-320
2.39785e-318
-1.63374e-317
3.65698e-316
-3.20521e-315
5.3085e-314
-6.33086e-313
7.46346e-312
-1.20848e-310
1.04994e-309
-2.20439e-308
1.52216e-307
-3.8659e-306
2.31168e-305
-6.58359e-304
3.67409e-303
-1.10107e-301
5.9993e-301
-1.82865e-299
9.87134e-299
-3.03197e-297
1.63196e-296
-5.0078e-295
2.74224e-294
-8.17914e-293
4.78704e-292
-1.30252e-290
8.89239e-290
-1.9869e-288
1.74295e-287
-2.88588e-286
3.44032e-285
-4.05927e-284
6.56649e-283
-5.71067e-282
1.19802e-280
-8.27628e-280
2.10154e-278
-1.25622e-277
3.57996e-276
-1.99493e-275
5.98977e-274
-3.2538e-273
9.95218e-272
-5.34952e-271
1.65038e-269
-8.84134e-269
2.72751e-267
-1.47795e-266
4.48072e-265
-2.51318e-264
7.28904e-263
-4.39155e-262
1.16599e-260
-7.92845e-260
1.82986e-258
-1.45203e-257
2.84787e-256
-2.62068e-255
4.46622e-254
-4.61116e-253
7.08354e-252
-8.00242e-251
1.12439e-249
-1.38929e-248
1.77445e-247
-2.40862e-246
2.81091e-245
-4.11451e-244
4.54508e-243
-6.8692e-242
7.53555e-241
-1.12708e-239
1.26507e-238
-1.84191e-237
2.11953e-236
-3.02347e-235
3.53188e-234
-4.97899e-233
5.87605e-232
-8.20312e-231
9.76496e-230
-1.35493e-228
1.61609e-227
-2.24568e-226
2.67294e-225
-3.70487e-224
4.47285e-223
-6.01288e-222
7.62949e-221
-9.58828e-220
1.31341e-218
-1.52536e-217
2.23813e-216
-2.47023e-215
3.73379e-214
-4.09725e-213
6.12563e-212
-6.87778e-211
1.00134e-209
-1.15173e-208
1.64465e-207
-1.91796e-206
2.70952e-205
-3.19059e-204
4.46287e-203
-5.30587e-202
7.36472e-201
-8.7912e-200
1.21936e-198
-1.45537e-197
2.0107e-196
-2.43531e-195
3.2648e-194
-4.15057e-193
5.20933e-192
-7.1455e-191
8.27373e-190
-1.22176e-188
1.33064e-187
-2.05498e-186
2.18053e-185
-3.40826e-184
3.61807e-183
-5.61648e-182
6.02597e-181
-9.24736e-180
1.00308e-178
-1.52405e-177
1.6672e-176
-2.51538e-175
2.76555e-174
-4.15913e-173
4.57874e-172
-6.88195e-171
7.59173e-170
-1.13368e-168
1.27133e-167
-1.84322e-166
2.16737e-165
-2.94485e-164
3.74535e-163
-4.6613e-162
6.45747e-161
-7.43074e-160
1.09683e-158
-1.20539e-157
1.8333e-156
-1.98588e-155
3.03302e-154
-1.75853e-153
-7.85834e-153
1.89311e-151
-6.59961e-151
-6.48084e-150
1.24858e-148
6.10213e-149
-5.46348e-147
2.79604e-146
2.30932e-145
-3.62616e-144
-5.64249e-144
2.02405e-142
7.57223e-143
-9.68897e-141
9.67132e-141
4.73841e-139
-1.12112e-138
-2.25494e-137
8.02435e-137
1.07385e-135
-4.53863e-135
-5.50861e-134
2.13402e-133
2.78982e-132
-8.48848e-132
-1.47386e-130
2.52927e-130
7.632e-129
-4.02983e-129
-4.40552e-127
-2.6126e-127
2.05302e-125
2.51321e-125
-7.51292e-124
-2.69523e-123
1.69644e-122
1.50519e-121
-2.56559e-121
-1.15094e-119
-1.0395e-119
3.67517e-118
9.95927e-118
-6.99111e-117
-9.50357e-116
-1.25224e-116
4.31095e-114
8.88498e-114
-7.09678e-113
-8.08239e-112
-1.03046e-112
3.41782e-110
9.41278e-110
-3.68391e-109
-8.77873e-108
-9.18743e-108
1.56565e-106
1.49494e-105
5.13889e-106
-4.45131e-104
-1.5774e-103
2.74219e-103
1.12008e-101
3.50409e-101
-5.84205e-101
-2.13689e-99
-4.82419e-99
1.37391e-98
3.79755e-97
8.4037e-97
-2.13162e-96
-6.14596e-95
-1.87213e-94
1.92295e-94
8.4352e-93
3.78505e-92
-3.09371e-94
-9.8071e-91
-8.21609e-90
-7.08687e-90
8.8726e-89
1.34375e-87
2.59025e-87
-4.93993e-87
-1.34328e-85
-8.46349e-85
-6.4417e-85
8.70927e-84
1.23705e-82
2.89558e-82
-2.21789e-82
-8.80577e-81
-8.26843e-80
-1.10224e-79
3.17497e-79
6.2664e-78
4.80762e-77
5.49803e-77
-2.05178e-76
-3.49715e-75
-2.61077e-74
-3.1497e-74
9.00217e-74
1.57821e-72
1.24437e-71
1.7516e-71
-2.86248e-71
-5.91682e-70
-5.72645e-69
-4.91706e-68
-4.05315e-67
-3.26619e-66
-2.57747e-65
-2.00323e-64
-1.47598e-63
-4.19304e-63
-2.28683e-63
2.99232e-62
3.07092e-61
2.37224e-60
1.70127e-59
1.18166e-58
8.03912e-58
5.37476e-57
3.53519e-56
2.28849e-55
1.45835e-54
9.14998e-54
5.65298e-53
3.43944e-52
2.0611e-51
1.21664e-50
7.07494e-50
4.05345e-49
2.2883e-48
1.27301e-47
6.9794e-47
3.77151e-46
2.00892e-45
1.05486e-44
5.46073e-44
2.78718e-43
1.40273e-42
6.96157e-42
3.40721e-41
1.64468e-40
7.83036e-40
3.67733e-39
1.70357e-38
7.78558e-38
3.51037e-37
1.56161e-36
6.85442e-36
2.96875e-35
1.26883e-34
5.35161e-34
2.22758e-33
9.15111e-33
3.71043e-32
1.48492e-31
5.86579e-31
2.28725e-30
8.80401e-30
3.34536e-29
1.25491e-28
4.64737e-28
1.69918e-27
6.13363e-27
2.18604e-26
7.69251e-26
2.67276e-25
9.16941e-25
3.10615e-24
1.03899e-23
3.43171e-23
1.11926e-22
3.60476e-22
1.14644e-21
3.60049e-21
1.11663e-20
3.41974e-20
1.03424e-19
3.08878e-19
9.10953e-19
2.65305e-18
7.63016e-18
2.167e-17
6.07736e-17
1.68306e-16
4.60266e-16
1.2429e-15
3.31414e-15
8.72586e-15
2.2685e-14
5.82309e-14
1.47584e-13
3.69307e-13
9.12394e-13
2.22541e-12
5.35867e-12
1.27381e-11
2.98909e-11
6.92369e-11
1.583e-10
3.57233e-10
7.9565e-10
1.74893e-09
3.79379e-09
8.12083e-09
1.71524e-08
3.57451e-08
7.34926e-08
1.49064e-07
2.98242e-07
5.88566e-07
1.14554e-06
2.19876e-06
4.1615e-06
7.76576e-06
1.42866e-05
2.59084e-05
4.63084e-05
8.15708e-05
0.000141582
0.000242111
0.000407845
0.000676675
0.00110561
0.00177862
0.00281676
0.00439057
0.00673462
0.0101634
0.0150872
0.0220255
0.0316151
0.0446083
0.0618565
0.0842756
0.112787
0.148237
0.19129
0.242311
0.301241
0.367489
0.439862
0.516545
0.595167
0.672945
0.746914
0.814212
0.872394
0.91971
0.955296
0.979264
0.992801
0.998438
0.999838
0.999994
1
1
1
1
1
1
1
1
1
1
1
1
1
1
1
1
1
1
1
1
1
1
1
1
1
1
1
1
1
1
1
1
1
1
1
1
1
1
1
1
1
1
1
1
1
1
1
1
1
1
1
1
1
1
1
0.999999
0.999999
0.999998
0.999996
0.999992
0.999986
0.999974
0.999954
0.999918
0.999858
0.999758
0.999592
0.999323
0.998893
0.998219
0.99718
0.995605
0.993259
0.989828
0.9849
0.977957
0.968362
0.955361
0.938104
0.915675
0.887151
0.851689
0.808623
0.757589
0.698647
0.632389
0.56001
0.483325
0.404705
0.326933
0.252976
0.185693
0.127528
0.0802309
0.0446633
0.0207119
0.00718773
0.00155827
0.000161954
5.85708e-06
5.34621e-08
9.32069e-11
2.4837e-14
2.13334e-18
1.81911e-22
1.5473e-26
1.31805e-30
1.12725e-34
9.687e-39
8.36043e-43
7.23755e-47
6.2756e-51
5.44364e-55
4.71997e-59
4.08908e-63
3.53931e-67
3.06111e-71
2.64612e-75
2.28677e-79
1.97608e-83
1.70773e-87
1.47602e-91
1.27594e-95
1.10312e-99
9.53785e-104
8.24702e-108
7.13093e-112
6.16578e-116
5.3311e-120
4.60927e-124
3.98507e-128
3.44533e-132
2.97866e-136
2.57519e-140
2.22636e-144
1.92478e-148
1.66406e-152
1.43865e-156
1.24378e-160
1.0753e-164
9.29634e-169
8.03701e-173
6.94826e-177
6.00697e-181
5.19319e-185
4.48964e-189
3.8814e-193
3.35555e-197
2.90094e-201
2.50792e-205
2.16814e-209
1.87439e-213
1.62044e-217
1.40089e-221
1.21109e-225
1.047e-229
9.05139e-234
7.825e-238
6.76476e-242
5.84816e-246
5.05574e-250
4.37069e-254
3.77845e-258
3.26645e-262
2.82382e-266
2.44116e-270
2.11035e-274
1.82436e-278
1.57712e-282
1.36338e-286
1.17861e-290
1.01887e-294
8.80779e-299
7.614e-303
6.58199e-307
5.68983e-311
4.91857e-315
4.25178e-319
2.96439e-323
0
0
0
0
0
0
0
0
0
0
0
0
0
0
0
0
0
0
0
0
0
0
0
0
0
0
0
0
0
0
0
0
0
0
0
0
0
0
0
0
0
0
0
0
0
0
0
0
0
0
0
0
0
0
0
0
0
0
0
0
0
0
0
0
0
0
0
0
0
0
0
0
0
0
0
0
0
0
0
0
0
0
0
0
0
0
0
0
0
0
0
0
0
0
0
0
0
0
0
0
0
0
0
0
0
0
0
0
0
0
0
0
0
0
0
0
0
0
0
0
0
0
0
0
0
0
0
0
0
0
0
0
0
0
0
0
0
0
0
0
0
0
0
0
0
0
0
0
0
0
0
0
0
0
0
)
;

boundaryField
{
    sides
    {
        type            zeroGradient;
    }
    empty
    {
        type            empty;
    }
}


// ************************************************************************* //
