/*--------------------------------*- C++ -*----------------------------------*\
| =========                 |                                                 |
| \\      /  F ield         | OpenFOAM: The Open Source CFD Toolbox           |
|  \\    /   O peration     | Version:  2312                                  |
|   \\  /    A nd           | Website:  www.openfoam.com                      |
|    \\/     M anipulation  |                                                 |
\*---------------------------------------------------------------------------*/
FoamFile
{
    version     2.0;
    format      ascii;
    arch        "LSB;label=32;scalar=64";
    class       volScalarField;
    location    "3.4";
    object      T;
}
// * * * * * * * * * * * * * * * * * * * * * * * * * * * * * * * * * * * * * //

dimensions      [0 0 0 1 0 0 0];

internalField   nonuniform List<scalar> 
1000
(
2.0747e-310
-8.61862e-310
7.49523e-309
-6.204e-308
5.12863e-307
-4.22644e-306
3.47227e-305
-2.84389e-304
2.32204e-303
-1.89008e-302
1.53369e-301
-1.24063e-300
1.00043e-299
-8.04206e-299
6.44438e-298
-5.14781e-297
4.0991e-296
-3.25367e-295
2.57439e-294
-2.03042e-293
1.59626e-292
-1.2509e-291
9.77106e-291
-7.60768e-290
5.90407e-289
-4.56704e-288
3.52125e-287
-2.70604e-286
2.07272e-285
-1.58239e-284
1.20405e-283
-9.13129e-283
6.90192e-282
-5.1994e-281
3.90371e-280
-2.92103e-279
2.17834e-278
-1.61898e-277
1.19916e-276
-8.85168e-276
6.51156e-275
-4.77363e-274
3.48747e-273
-2.53902e-272
1.84208e-271
-1.33179e-270
9.59483e-270
-6.88827e-269
4.92775e-268
-3.51274e-267
2.49516e-266
-1.76603e-265
1.24548e-264
-8.75215e-264
6.12803e-263
-4.27514e-262
2.97165e-261
-2.05804e-260
1.42009e-259
-9.76286e-259
6.68696e-258
-4.56316e-257
3.10228e-256
-2.1012e-255
1.41781e-254
-9.53079e-254
6.38248e-253
-4.25789e-252
2.82967e-251
-1.87329e-250
1.23538e-249
-8.11534e-249
5.31033e-248
-3.46128e-247
2.24721e-246
-1.45323e-245
9.3606e-245
-6.00538e-244
3.8374e-243
-2.44223e-242
1.54803e-241
-9.77258e-241
6.1442e-240
-3.84716e-239
2.39897e-238
-1.48974e-237
9.21272e-237
-5.67347e-236
3.47923e-235
-2.12462e-234
1.29192e-233
-7.82229e-233
4.71594e-232
-2.83092e-231
1.69201e-230
-1.00689e-229
5.96568e-229
-3.519e-228
2.06659e-227
-1.20823e-226
7.03233e-226
-4.07464e-225
2.35022e-224
-1.34941e-223
7.71236e-223
-4.38757e-222
2.48452e-221
-1.40033e-220
7.85555e-220
-4.38597e-219
2.43717e-218
-1.3478e-217
7.41768e-217
-4.06258e-216
2.21418e-215
-1.20084e-214
6.48046e-214
-3.47984e-213
1.85922e-212
-9.88337e-212
5.22716e-211
-2.75041e-210
1.43974e-209
-7.49735e-209
3.88376e-208
-2.00124e-207
1.02573e-206
-5.22917e-206
2.65144e-205
-1.33708e-204
6.70573e-204
-3.34444e-203
1.65871e-202
-8.18024e-202
4.01133e-201
-1.95576e-200
9.48037e-200
-4.56871e-199
2.18876e-198
-1.04235e-197
4.93416e-197
-2.32153e-196
1.0856e-195
-5.04508e-195
2.32994e-194
-1.06923e-193
4.87547e-193
-2.20877e-192
9.94119e-192
-4.44478e-191
1.97401e-190
-8.70771e-190
3.81483e-189
-1.65968e-188
7.16992e-188
-3.07541e-187
1.30963e-186
-5.53612e-186
2.32289e-185
-9.67324e-185
3.99745e-184
-1.63912e-183
6.66804e-183
-2.69086e-182
1.07703e-181
-4.27508e-181
1.68258e-180
-6.56523e-180
2.53918e-179
-9.7326e-179
3.69633e-178
-1.3907e-177
5.18223e-177
-1.91216e-176
6.98468e-176
-2.52503e-175
9.03145e-175
-3.1951e-174
1.11763e-173
-3.86398e-173
1.31983e-172
-4.45199e-172
1.48225e-171
-4.86827e-171
1.57631e-170
-5.02813e-170
1.57875e-169
-4.87465e-169
1.47846e-168
-4.39868e-168
1.28167e-167
-3.64992e-167
1.01327e-166
-2.73287e-166
7.12776e-166
-1.78576e-165
4.2537e-165
-9.46791e-165
1.90399e-164
-3.18472e-164
3.13196e-164
5.73237e-164
-4.91995e-163
2.03782e-162
-6.70646e-162
1.91621e-161
-4.85321e-161
1.07608e-160
-1.96639e-160
2.30659e-160
1.99022e-160
-2.47087e-159
1.03887e-158
-3.26993e-158
8.51142e-158
-1.82783e-157
2.91425e-157
-1.50539e-157
-1.21705e-156
6.57927e-156
-2.21342e-155
5.77986e-155
-1.17523e-154
1.5343e-154
7.64804e-155
-1.34146e-153
5.47878e-153
-1.55812e-152
3.32256e-152
-4.49881e-152
-1.84079e-152
3.71307e-151
-1.49077e-150
4.03564e-150
-7.71888e-150
6.9983e-150
1.99036e-149
-1.29314e-148
4.17361e-148
-9.21647e-148
1.17413e-147
1.02067e-147
-1.17323e-146
4.17831e-146
-9.63239e-146
1.2639e-145
1.0057e-145
-1.2102e-144
4.22414e-144
-9.20916e-144
9.85818e-144
1.93017e-143
-1.38425e-142
4.20652e-142
-7.66785e-142
3.22776e-142
3.58458e-141
-1.58025e-140
3.78657e-140
-4.47544e-140
-6.8216e-140
5.37165e-139
-1.58418e-138
2.54178e-138
4.76617e-139
-1.76137e-137
6.16023e-137
-1.14995e-136
3.40563e-137
5.91388e-136
-2.33336e-135
4.66232e-135
-2.10385e-135
-2.14038e-134
8.81378e-134
-1.75657e-133
6.66733e-134
8.51199e-133
-3.33246e-132
6.14857e-132
-4.25714e-133
-3.62467e-131
1.24257e-130
-1.92982e-130
-1.1874e-130
1.56911e-129
-4.42181e-129
4.86294e-129
1.11281e-128
-6.53878e-128
1.41887e-127
-5.54109e-128
-6.83555e-127
2.48484e-126
-3.63903e-126
-3.68442e-126
3.33043e-125
-8.00224e-125
4.3807e-125
3.47788e-124
-1.31011e-123
1.83668e-123
2.37911e-123
-1.80077e-122
3.8655e-122
-5.33954e-123
-2.14793e-121
6.50048e-121
-5.82305e-121
-2.20472e-120
9.6737e-120
-1.4056e-119
-1.80944e-119
1.33083e-118
-2.58675e-118
-7.90167e-119
1.73706e-117
-4.2073e-117
1.03315e-117
2.19449e-116
-6.38393e-116
3.84499e-116
2.73428e-115
-9.29113e-115
7.81988e-115
3.42691e-114
-1.31882e-113
1.30797e-113
4.40752e-113
-1.84461e-112
1.95932e-112
5.91357e-112
-2.55625e-111
2.69707e-111
8.33662e-111
-3.51387e-110
3.40876e-110
1.22849e-109
-4.77684e-109
3.84612e-109
1.86392e-108
-6.37548e-108
3.53273e-108
2.85572e-107
-8.25333e-107
1.64752e-107
4.33365e-106
-1.01667e-105
-3.08278e-106
6.39849e-105
-1.15346e-104
-1.23966e-104
9.02967e-104
-1.12577e-103
-2.82505e-103
1.19255e-102
-7.58177e-103
-5.20605e-102
1.428e-101
1.82545e-102
-8.3162e-101
1.45594e-100
1.92983e-100
-1.16405e-99
1.04478e-99
4.57607e-99
-1.39415e-98
-7.31148e-100
7.83127e-98
-1.31225e-97
-2.07368e-97
1.07296e-96
-6.54689e-97
-4.8079e-96
1.14575e-95
7.78889e-96
-7.5128e-95
7.63101e-95
2.90493e-94
-8.64812e-94
-2.59326e-94
5.09089e-93
-6.18681e-93
-1.84743e-92
6.038e-92
1.30593e-92
-3.44504e-91
4.1248e-91
1.28417e-90
-3.97188e-90
-1.54278e-90
2.3353e-89
-2.23754e-89
-9.59544e-89
2.41975e-88
2.07396e-88
-1.54635e-87
7.87093e-88
7.26769e-87
-1.2802e-86
-2.35438e-86
9.48482e-86
1.6913e-86
-5.19412e-85
4.81111e-85
2.21399e-84
-4.88065e-84
-6.52197e-84
3.22788e-83
1.56269e-84
-1.70271e-82
1.57648e-82
7.36827e-82
-1.51207e-81
-2.43788e-81
1.00508e-80
3.73737e-81
-5.52712e-80
2.76758e-80
2.62265e-79
-3.5643e-79
-1.06575e-78
2.66336e-78
3.43987e-78
-1.62138e-77
-5.81361e-78
8.69972e-77
-3.05594e-77
-4.22761e-76
4.33435e-76
1.87108e-75
-3.36418e-75
-7.44595e-75
2.13977e-74
2.54213e-74
-1.2201e-73
-6.27499e-74
6.46287e-73
-8.34174e-75
-3.23767e-72
1.5503e-72
1.54965e-71
-1.44251e-71
-7.12997e-71
1.00105e-70
3.16492e-70
-6.11544e-70
-1.35787e-69
3.47158e-69
5.6329e-69
-1.87816e-68
-2.25705e-68
9.82366e-68
8.7138e-68
-5.01364e-67
-3.22832e-67
2.51285e-66
1.14156e-66
-1.24272e-65
-3.83256e-66
6.08574e-65
1.22363e-65
-2.95898e-64
-3.83683e-65
1.43108e-63
1.33112e-64
-6.89231e-63
-6.24549e-64
3.30684e-62
4.04346e-63
-1.58003e-61
-2.96982e-62
7.51029e-61
2.16219e-61
-3.54484e-60
-1.4993e-60
1.65708e-59
9.86448e-60
-7.64458e-59
-6.18809e-59
3.46388e-58
3.72138e-58
-1.53168e-57
-2.15432e-57
6.54873e-57
1.2036e-56
-2.6688e-56
-6.49631e-56
1.01096e-55
3.38598e-55
-3.37456e-55
-1.70091e-54
8.4413e-55
8.20337e-54
-1.69196e-55
-3.77404e-53
-1.75633e-53
1.63842e-52
1.65283e-52
-6.58459e-52
-1.11604e-51
2.3567e-51
6.44202e-51
-6.79119e-51
-3.33181e-50
9.47391e-51
1.56233e-49
6.18222e-50
-6.58798e-49
-7.38982e-49
2.41551e-48
5.07222e-48
-6.95464e-48
-2.78943e-47
9.01659e-48
1.30822e-46
6.69243e-47
-5.21855e-46
-7.38087e-46
1.65666e-45
4.70167e-45
-3.03691e-45
-2.33435e-44
-8.47101e-45
9.37011e-44
1.27123e-43
-2.82229e-43
-8.31913e-43
3.78436e-43
3.98e-42
2.5276e-42
-1.4431e-41
-2.63901e-41
3.29544e-41
1.49364e-40
2.75379e-41
-6.04493e-40
-8.16924e-40
1.60442e-39
5.36671e-39
-3.03513e-40
-2.29924e-38
-2.71938e-38
6.24128e-38
1.93211e-37
-1.23996e-38
-8.22261e-37
-1.03238e-36
2.03887e-36
7.03344e-36
1.17334e-36
-2.74174e-35
-4.31647e-35
5.16856e-35
2.50979e-34
1.51261e-34
-8.04103e-34
-1.80449e-33
5.75752e-34
8.19151e-33
1.01593e-32
-1.74432e-32
-6.81018e-32
-3.69056e-32
2.14697e-31
4.92054e-31
-6.09219e-32
-2.06083e-30
-3.15945e-30
2.9117e-30
1.74033e-29
1.80451e-29
-3.76507e-29
-1.36016e-28
-8.96267e-29
3.74336e-28
1.01439e-27
3.59471e-28
-3.29011e-27
-7.38729e-27
-8.59093e-28
2.68869e-26
5.35397e-26
-2.27596e-27
-2.09182e-25
-3.91825e-25
4.01015e-26
1.56585e-24
2.91835e-24
-1.48269e-25
-1.12908e-23
-2.20998e-23
-2.36746e-24
7.77852e-23
1.68475e-22
5.91501e-23
-5.01472e-22
-1.27082e-21
-8.36312e-22
2.89322e-21
9.26827e-21
9.4264e-21
-1.33058e-20
-6.33965e-20
-9.14693e-20
2.62304e-20
3.88291e-19
7.78899e-19
3.71865e-19
-1.93529e-18
-5.7632e-18
-6.43193e-18
5.45887e-18
3.54633e-17
6.42397e-17
2.77312e-17
-1.58515e-16
-4.76657e-16
-5.99098e-16
1.96509e-16
2.54731e-15
5.58061e-15
5.05571e-15
-6.50162e-15
-3.34687e-14
-6.20954e-14
-4.38657e-14
9.76705e-14
3.97138e-13
6.94841e-13
4.73527e-13
-1.0762e-12
-4.38203e-12
-7.97646e-12
-6.69882e-12
8.29056e-12
4.3994e-11
9.12947e-11
1.04327e-10
-1.07887e-11
-3.64145e-10
-9.64572e-10
-1.50122e-09
-1.10448e-09
1.65994e-09
8.11681e-09
1.76436e-08
2.46059e-08
1.52078e-08
-3.25228e-08
-1.40014e-07
-3.04117e-07
-4.54604e-07
-4.01616e-07
1.96204e-07
1.78071e-06
4.66796e-06
8.54726e-06
1.16581e-05
9.74908e-06
-4.7876e-06
-4.27823e-05
-0.000115801
-0.000229452
-0.000370346
-0.000484791
-0.000448214
-2.613e-05
0.00116989
0.00372461
0.00845035
0.0163954
0.0288177
0.0471159
0.072713
0.106899
0.150645
0.204418
0.268017
0.340468
0.420006
0.504154
0.589898
0.673958
0.753093
0.824428
0.885727
0.935604
0.973604
1.00018
1.01657
1.02454
1.02616
1.02356
1.01863
1.01293
1.00758
1.00325
1.00021
0.998441
0.997719
0.997734
0.998173
0.998772
0.999346
0.999792
1.00008
1.00021
1.00024
1.0002
1.00013
1.00007
1.00002
0.999988
0.999976
0.999976
0.999982
0.99999
0.999996
1
1
1
1
1
1
1
1
1
1
1
1
1
1
1
1
1
1
1
1
1
1
1
1
1
1
1
1
1
1
1
1
1
1
1
1
0.999998
0.999995
0.999991
0.999988
0.99999
1
1.00004
1.00012
1.00023
1.00037
1.00048
1.00045
1.00003
0.99883
0.996275
0.99155
0.983605
0.971182
0.952884
0.927287
0.893101
0.849355
0.795582
0.731983
0.659532
0.579994
0.495846
0.410102
0.326042
0.246907
0.175572
0.114273
0.0643959
0.0263957
-0.000182664
-0.016566
-0.024535
-0.0261637
-0.0235571
-0.0186262
-0.0129272
-0.00757733
-0.00324663
-0.000210165
0.00155909
0.00228134
0.00226589
0.00182713
0.00122837
0.000654426
0.000208251
-7.597e-05
-0.00021152
-0.000236809
-0.000196817
-0.000130711
-6.58144e-05
-1.67071e-05
1.24349e-05
2.41278e-05
2.39328e-05
1.77038e-05
1.00041e-05
3.56536e-06
-5.41805e-07
-2.38968e-06
-2.62098e-06
-1.99745e-06
-1.13335e-06
-3.98588e-07
6.2786e-08
2.59632e-07
2.73402e-07
1.97147e-07
1.01979e-07
2.71569e-08
-1.51651e-08
-2.9399e-08
-2.63782e-08
-1.65355e-08
-6.80904e-09
-3.038e-10
2.63428e-09
3.0261e-09
2.17242e-09
1.06587e-09
2.27744e-10
-2.06406e-10
-3.17153e-10
-2.51725e-10
-1.34985e-10
-3.82478e-11
1.54312e-11
3.18222e-11
2.68433e-11
1.4915e-11
4.5579e-12
-1.30471e-12
-3.15307e-12
-2.69029e-12
-1.47951e-12
-4.34595e-13
1.42242e-13
3.11266e-13
2.54692e-13
1.32456e-13
3.30526e-14
-1.80519e-14
-3.02013e-14
-2.25963e-14
-1.05629e-14
-1.74871e-15
2.25061e-15
2.80349e-15
1.84405e-15
7.22662e-16
9.962e-18
-2.53413e-16
-2.41417e-16
-1.34337e-16
-3.84699e-17
1.22947e-17
2.50304e-17
1.8678e-17
8.29932e-18
1.02538e-18
-1.96563e-18
-2.1372e-18
-1.24835e-18
-3.8573e-19
8.29175e-20
2.05796e-19
1.5474e-19
6.73274e-20
7.20583e-21
-1.62845e-20
-1.66759e-20
-9.12936e-21
-2.40637e-21
9.31472e-22
1.59616e-21
1.06799e-21
3.94586e-22
-1.01123e-23
-1.36374e-22
-1.12428e-22
-5.1237e-23
-7.19331e-24
1.02896e-23
1.08925e-23
5.82872e-24
1.41275e-24
-6.5879e-25
-9.85312e-25
-6.05429e-25
-1.90774e-25
3.11748e-26
8.41141e-26
5.87223e-26
2.1816e-26
-2.78879e-28
-6.83958e-27
-5.39606e-27
-2.25104e-27
-1.73851e-28
5.34643e-28
4.74692e-28
2.15728e-28
2.92763e-29
-4.05908e-29
-4.02985e-29
-1.95125e-29
-3.40626e-30
3.02893e-30
3.32234e-30
1.6822e-30
3.35486e-31
-2.25112e-31
-2.67284e-31
-1.391e-31
-2.96527e-32
1.68781e-32
2.10543e-32
1.10751e-32
2.40671e-33
-1.28843e-33
-1.62696e-33
-8.50802e-34
-1.80865e-34
1.00392e-34
1.23389e-34
6.30951e-35
1.25706e-35
-7.94494e-36
-9.17576e-36
-4.51292e-36
-7.9885e-37
6.32122e-37
6.67675e-37
3.10594e-37
4.50551e-38
-4.99608e-38
-4.73941e-38
-2.04862e-38
-2.07959e-39
3.87953e-39
3.26935e-39
1.28693e-39
5.49616e-41
-2.93321e-40
-2.18181e-40
-7.62513e-41
2.94647e-42
2.14436e-41
1.40115e-41
4.1931e-42
-6.63404e-43
-1.50745e-42
-8.6034e-43
-2.07608e-43
7.37498e-44
1.0142e-43
5.00873e-44
8.62212e-45
-6.55303e-45
-6.49977e-45
-2.73178e-45
-2.3121e-46
5.11397e-46
3.94671e-46
1.36889e-46
-5.04952e-48
-3.62483e-47
-2.25463e-47
-6.07036e-48
1.41841e-48
2.36636e-48
1.19925e-48
2.16754e-49
-1.4281e-49
-1.42959e-49
-5.83791e-50
-4.02137e-51
1.12869e-50
6.22744e-51
)
;

boundaryField
{
    sides
    {
        type            zeroGradient;
    }
    empty
    {
        type            empty;
    }
}


// ************************************************************************* //
