/*--------------------------------*- C++ -*----------------------------------*\
| =========                 |                                                 |
| \\      /  F ield         | OpenFOAM: The Open Source CFD Toolbox           |
|  \\    /   O peration     | Version:  2312                                  |
|   \\  /    A nd           | Website:  www.openfoam.com                      |
|    \\/     M anipulation  |                                                 |
\*---------------------------------------------------------------------------*/
FoamFile
{
    version     2.0;
    format      ascii;
    arch        "LSB;label=32;scalar=64";
    class       volScalarField;
    location    "3.2";
    object      T;
}
// * * * * * * * * * * * * * * * * * * * * * * * * * * * * * * * * * * * * * //

dimensions      [0 0 0 1 0 0 0];

internalField   nonuniform List<scalar> 
1000
(
6.67721e-23
-6.82194e-23
1.45699e-22
-2.63464e-22
4.89538e-22
-9.01942e-22
1.65918e-21
-3.0433e-21
5.56723e-21
-1.01566e-20
1.84787e-20
-3.35272e-20
6.06628e-20
-1.09456e-19
1.96942e-19
-3.5336e-19
6.32215e-19
-1.12791e-18
2.00651e-18
-3.55923e-18
6.2952e-18
-1.11019e-17
1.95212e-17
-3.42244e-17
5.98235e-17
-1.04258e-16
1.8115e-16
-3.13798e-16
5.41923e-16
-9.3302e-16
1.60141e-15
-2.74006e-15
4.67367e-15
-7.94666e-15
1.34689e-14
-2.27556e-14
3.83219e-14
-6.43273e-14
1.07628e-13
-1.79482e-13
2.98317e-13
-4.94178e-13
8.15879e-13
-1.34244e-12
2.20129e-12
-3.59718e-12
5.85786e-12
-9.50591e-12
1.53715e-11
-2.47679e-11
3.97654e-11
-6.36133e-11
1.01392e-10
-1.61013e-10
2.54744e-10
-4.01529e-10
6.30503e-10
-9.86277e-10
1.53687e-09
-2.38552e-09
3.68829e-09
-5.67993e-09
8.71205e-09
-1.33088e-08
2.02481e-08
-3.06785e-08
4.62881e-08
-6.95461e-08
1.04045e-07
-1.54988e-07
2.29868e-07
-3.39423e-07
4.98957e-07
-7.30167e-07
1.06364e-06
-1.54224e-06
2.22573e-06
-3.19688e-06
4.56971e-06
-6.50023e-06
9.20064e-06
-1.29576e-05
1.81559e-05
-2.53083e-05
3.50934e-05
-4.84027e-05
6.63984e-05
-9.05838e-05
0.000122887
-0.000165761
0.000222297
-0.000296355
0.000392706
-0.000517188
0.000676859
-0.000880153
0.00113702
-0.001459
0.00185934
-0.00235286
0.00295591
-0.003686
0.00456139
-0.00560037
0.00682032
-0.00823651
0.0098606
-0.0116989
0.0137501
-0.0160037
0.018437
-0.0210134
0.0236806
-0.026369
0.0289915
-0.0314441
0.0336078
-0.0353528
0.0365434
-0.0370459
0.036738
-0.0355188
0.0333206
-0.0301205
0.0259501
-0.0209045
0.0151457
-0.00890289
0.00246551
0.00382987
-0.00961956
0.0145388
-0.0182528
0.0204892
-0.021071
0.0199432
-0.0171921
0.0130515
-0.00789408
0.00220641
0.00345278
-0.00850708
0.0124255
-0.0147868
0.0153369
-0.0140305
0.0110488
-0.00678925
0.00182337
0.00317261
-0.00750818
0.0105778
-0.0119541
0.0114605
-0.0092072
0.00558436
-0.00120688
-0.0031817
0.00683318
-0.00912603
0.0096803
-0.00843323
0.00565826
-0.00191977
-0.00203148
0.00540467
-0.00752925
0.00799605
-0.00674776
0.00409624
-0.0006587
-0.00277673
0.00542867
-0.00670372
0.00633806
-0.00446346
0.00157795
0.00157543
-0.00419465
0.00562406
-0.00552572
0.00396999
-0.00141781
-0.00140409
0.00370382
-0.00484659
0.00453535
-0.00289621
0.000440438
0.00208891
-0.00394256
0.00459523
-0.00390915
0.00217755
-3.15542e-05
-0.00176248
0.00255116
-0.00200622
0.000228655
0.00229274
-0.00485684
0.00680093
-0.00773931
0.00770428
-0.00713665
0.00672665
-0.00716121
0.00887027
-0.0118674
0.015746
-0.0198341
0.0234483
-0.0261467
0.02788
-0.0289785
0.0299776
-0.0313546
0.0332849
-0.035523
0.037462
-0.0383506
0.0375774
-0.0349046
0.0305494
-0.0250817
0.0191855
-0.013395
0.00792642
-0.00268343
-0.00257035
0.00795794
-0.0132848
0.0179927
-0.0213073
0.0225208
-0.021281
0.0177553
-0.0125893
0.00668445
-0.000900168
-0.00417696
0.00829649
-0.01143
0.0135667
-0.0145533
0.014087
-0.0118796
0.00790709
-0.00259934
-0.00315593
0.00822844
-0.0115971
0.0126794
-0.0114874
0.00854929
-0.00465372
0.000561716
0.0031712
-0.00620043
0.00827716
-0.00913838
0.00851627
-0.00628944
0.00268566
0.00161416
-0.0055838
0.00816695
-0.00866696
0.00701975
-0.00380968
2.28835e-05
0.00333082
-0.00553878
0.00631512
-0.0057318
0.00405795
-0.00164154
-0.00110336
0.00365275
-0.00538668
0.00574071
-0.0044606
0.00181558
0.00139338
-0.00409334
0.00536885
-0.00484663
0.00283312
-0.00013988
-0.0022926
0.00376302
-0.00399591
0.00310971
-0.0014623
-0.00049186
0.00226933
-0.00339197
0.00347324
-0.00238201
0.000397679
0.00178866
-0.00330851
0.00351039
-0.002302
0.000224733
0.00180523
-0.00294843
0.00282766
-0.0016423
-1.23723e-05
0.00146903
-0.00225549
0.00219735
-0.00138587
0.00010743
0.00121378
-0.00209277
0.0021363
-0.00124888
-0.00023538
0.00163833
-0.0022601
0.00177367
-0.000436048
-0.00104354
0.00190962
-0.00178134
0.000824729
0.000404496
-0.00130565
0.00152921
-0.00107451
0.000205301
0.000700523
-0.00127868
0.0012799
-0.000670396
-0.000300105
0.00115319
-0.00140706
0.000876992
0.000159396
-0.00109334
0.0013635
-0.000826323
-0.000154291
0.000964485
-0.00114936
0.00067649
0.000106327
-0.000738157
0.000917107
-0.000614338
2.46511e-05
0.000552914
-0.000833887
0.000659924
-9.60775e-05
-0.000552664
0.00088135
-0.00064771
-2.24024e-05
0.000680977
-0.000867276
0.000455775
0.000244509
-0.000730092
0.000685261
-0.000194686
-0.000364328
0.000624849
-0.00046958
5.15912e-05
0.000354725
-0.000523416
0.000373693
6.54878e-06
-0.00039347
0.000531515
-0.000299386
-0.000165769
0.000525232
-0.000488982
7.01362e-05
0.00039967
-0.00054058
0.000250291
0.000214396
-0.000472875
0.000346255
2.18151e-05
-0.000326407
0.000360637
-0.000143021
-0.000146961
0.000315403
-0.000262884
2.55894e-05
0.000239035
-0.000333476
0.000162992
0.000156307
-0.000357483
0.000250474
8.23831e-05
-0.000340449
0.000286346
2.15131e-05
-0.000289486
0.000280089
-3.02438e-05
-0.000214156
0.000248902
-7.96488e-05
-0.000127678
0.00021251
-0.000130361
-4.63537e-05
0.00018682
-0.000179071
1.39713e-05
0.000178239
-0.000215914
4.37018e-05
0.000181437
-0.000229721
4.46152e-05
0.000182728
-0.000215851
3.04235e-05
0.000168725
-0.000181876
2.04372e-05
0.000136163
-0.000146174
2.8229e-05
9.63855e-05
-0.000128119
5.19297e-05
6.96046e-05
-0.000134881
7.40965e-05
7.06872e-05
-0.000154597
7.39519e-05
9.60684e-05
-0.000163615
4.48275e-05
0.000123726
-0.000145252
2.37702e-06
0.000129763
-0.000105577
-2.66207e-05
0.000109823
-6.99988e-05
-2.84799e-05
8.47965e-05
-5.95552e-05
-1.75555e-05
8.09532e-05
-6.77578e-05
-2.32356e-05
0.000100671
-6.44461e-05
-5.73834e-05
0.000115769
-2.83597e-05
-9.68397e-05
9.67454e-05
2.52559e-05
-0.000106235
4.88453e-05
5.84873e-05
-8.01325e-05
8.95846e-06
5.61657e-05
-5.1545e-05
-1.76304e-07
4.60364e-05
-4.83962e-05
-1.17841e-06
5.96811e-05
-5.22557e-05
-2.91659e-05
8.23086e-05
-2.35655e-05
-7.37305e-05
6.91199e-05
3.37051e-05
-8.53322e-05
1.52399e-05
6.75663e-05
-4.89207e-05
-2.83667e-05
5.35786e-05
-1.12229e-05
-3.07818e-05
3.28054e-05
-5.71254e-06
-2.85333e-05
3.80345e-05
2.86152e-06
-5.25874e-05
3.13325e-05
4.50523e-05
-5.94176e-05
-2.06323e-05
7.11202e-05
-9.53963e-06
-6.37557e-05
3.35857e-05
4.19586e-05
-4.33384e-05
-1.47829e-05
3.65887e-05
-8.18937e-06
-1.6823e-05
2.01487e-05
-8.89082e-06
-1.8783e-05
3.27378e-05
6.22793e-06
-4.86335e-05
1.233e-05
5.36582e-05
-3.06558e-05
-4.82648e-05
4.33454e-05
3.5496e-05
-4.70819e-05
-1.96689e-05
4.10858e-05
5.01405e-06
-2.68439e-05
5.36399e-06
7.37419e-06
-1.00206e-05
1.36739e-05
9.19081e-06
-3.28281e-05
-4.41217e-06
4.73565e-05
-2.07372e-06
-5.55375e-05
7.96524e-06
5.66768e-05
-1.14514e-05
-5.09608e-05
1.15821e-05
3.92491e-05
-8.42016e-06
-2.28872e-05
2.97474e-06
3.58683e-06
3.0597e-06
1.66305e-05
-7.71795e-06
-3.54698e-05
9.27478e-06
5.04518e-05
-6.7728e-06
-5.91322e-05
4.61049e-07
5.95005e-05
7.98778e-06
-5.05452e-05
-1.56191e-05
3.28758e-05
1.87982e-05
-9.18837e-06
-1.42719e-05
-1.57121e-05
5.17185e-07
3.56135e-05
2.10089e-05
-4.44458e-05
-4.52854e-05
3.84852e-05
6.44025e-05
-1.85783e-05
-6.98293e-05
-8.64521e-06
5.59947e-05
3.17016e-05
-2.40372e-05
-3.79622e-05
-1.61958e-05
1.95734e-05
4.79363e-05
2.0644e-05
-5.39928e-05
-6.68652e-05
2.64062e-05
9.4822e-05
2.53373e-05
-8.38152e-05
-7.38681e-05
3.17117e-05
8.56556e-05
3.64651e-05
-4.2515e-05
-7.63182e-05
-3.8822e-05
5.06506e-05
0.00010624
3.75945e-05
-0.000101518
-0.000131814
8.81939e-06
0.000150784
0.000113367
-5.52347e-05
-0.000157945
-9.5483e-05
5.77861e-05
0.000163218
0.000124957
-4.85571e-05
-0.000211763
-0.000176746
6.69108e-05
0.000278572
0.000213265
-8.36878e-05
-0.000316325
-0.000257841
3.92723e-05
0.000324932
0.000361754
8.56083e-05
-0.000324908
-0.000525683
-0.000277373
0.000280381
0.000681393
0.000540542
-8.13837e-05
-0.000720656
-0.000882269
-0.000390633
0.000493628
0.00119585
0.00114894
0.000209315
-0.00111799
-0.0019256
-0.00152576
2.78752e-05
0.00191837
0.00301436
0.00247417
0.000227073
-0.00283921
-0.00513498
-0.00509392
-0.00206635
0.00314752
0.00846356
0.0112737
0.00943292
0.00216302
-0.00932557
-0.0216992
-0.0300188
-0.0288102
-0.013283
0.0197284
0.0712633
0.140119
0.223068
0.315438
0.411945
0.507534
0.597939
0.679945
0.75148
0.811644
0.860598
0.899262
0.928934
0.951024
0.966965
0.978168
0.985899
0.991144
0.994586
0.996726
0.998009
0.998813
0.999362
0.999709
0.999854
0.999866
0.999875
0.999952
1.00005
1.00006
0.999987
0.999915
0.999941
1.00004
1.0001
1.00004
0.999927
0.999894
0.999985
1.0001
1.00011
0.999991
0.999871
0.999888
1.00003
1.00016
1.00012
0.999946
0.999815
0.99987
1.00007
1.00022
1.00016
0.999924
0.999741
0.999799
1.00007
1.0003
1.00027
0.999978
0.999661
0.999618
0.999925
1.00035
1.00052
1.00025
0.999722
0.999343
0.999463
1.00006
1.00071
1.0009
1.00041
0.999488
0.998784
0.998864
0.999815
1.00111
1.0019
1.00152
0.999999
0.998092
0.996962
0.997507
0.99979
1.00287
1.00513
1.00506
1.00206
0.996882
0.991551
0.988702
0.990541
0.997851
1.00936
1.0217
1.02999
1.02879
1.01331
0.980301
0.928723
0.859844
0.776926
0.684598
0.58808
0.492442
0.402022
0.320059
0.248563
0.188377
0.139369
0.100696
0.0710749
0.0490256
0.0330568
0.0217945
0.0140534
0.00886438
0.00547033
0.00330313
0.00195171
0.00112847
0.000638472
0.000353453
0.000191426
0.000101405
5.25267e-05
2.65955e-05
1.31563e-05
6.35478e-06
2.99489e-06
1.37583e-06
6.15366e-07
2.67565e-07
1.12874e-07
4.60781e-08
1.81378e-08
6.84979e-09
2.46321e-09
8.33334e-10
2.59597e-10
7.1184e-11
1.51235e-11
1.0097e-12
-1.33503e-12
-1.06761e-12
-5.62488e-13
-2.46276e-13
-9.46882e-14
-3.22845e-14
-9.56259e-15
-2.2756e-15
-3.00777e-16
8.74499e-17
9.48036e-17
5.08957e-17
2.1274e-17
7.46596e-18
2.19251e-18
4.94125e-19
5.00371e-20
-2.71615e-20
-2.27969e-20
-1.09379e-20
-4.08539e-21
-1.23862e-21
-2.85648e-22
-3.18921e-23
1.3082e-23
1.13932e-23
5.31112e-24
1.87634e-24
5.18078e-25
9.75812e-26
4.21918e-28
-1.02908e-26
-5.96061e-27
-2.3106e-27
-6.8232e-28
-1.42579e-28
-8.78197e-30
9.92836e-30
6.43991e-30
2.54756e-30
7.45944e-31
1.50123e-31
6.50425e-33
-1.1568e-32
-6.90518e-33
-2.56458e-33
-6.90094e-34
-1.15419e-34
6.31764e-36
1.457e-35
7.0441e-36
2.28096e-36
5.12657e-37
4.82974e-38
-2.36874e-38
-1.672e-38
-6.32551e-39
-1.65863e-39
-2.52934e-40
2.56821e-41
3.61599e-41
1.57348e-41
4.54318e-42
8.2706e-43
-1.28688e-45
-7.48452e-44
-3.65287e-44
-1.11578e-44
-2.18641e-45
-7.49176e-47
1.555e-46
8.11084e-47
2.52418e-47
4.99947e-48
1.97698e-49
-3.34756e-49
-1.74204e-49
-5.31596e-50
-1.00775e-50
-2.11319e-52
7.45884e-52
3.61447e-52
1.04084e-52
1.77509e-53
-4.72686e-55
-1.66855e-54
-7.16146e-55
-1.87212e-55
-2.61391e-56
3.38258e-57
3.60333e-57
1.32987e-57
3.01833e-58
2.77459e-59
-1.16151e-59
-7.26233e-60
-2.25858e-60
-4.15756e-61
-4.80685e-63
3.00502e-62
1.3291e-62
3.39166e-63
4.33539e-64
-7.34316e-65
-6.3979e-65
-2.14989e-65
-4.24688e-66
-1.73233e-67
2.44231e-67
1.14702e-67
2.95921e-68
3.80074e-69
-6.04247e-70
-5.26692e-70
-1.71958e-70
-3.2046e-71
-6.1696e-73
2.05912e-72
8.77868e-73
2.06921e-73
2.06555e-74
-6.41358e-75
-4.025e-75
-1.15147e-75
-1.74576e-76
1.14799e-77
1.67072e-77
5.77604e-78
1.10872e-78
3.49906e-80
-6.25975e-80
-2.67273e-80
-6.08224e-81
-5.3104e-82
2.07891e-82
1.15713e-82
3.03011e-83
3.80072e-84
-5.8007e-85
-4.73434e-85
-1.40584e-85
-2.16899e-86
1.11745e-87
1.84534e-87
6.16814e-88
1.09451e-88
5.36849e-91
-6.90287e-90
-2.58647e-90
-5.08443e-91
-2.07086e-92
2.49703e-92
1.04485e-92
2.21946e-93
1.44036e-94
-8.80994e-95
-4.09187e-95
-9.21506e-96
-7.50332e-97
3.06176e-97
1.56135e-97
3.66741e-98
3.38606e-99
-1.05966e-99
-5.82756e-100
-1.40619e-100
-1.38772e-101
3.69144e-102
2.13357e-102
5.21144e-103
5.2684e-104
-1.30487e-104
-7.67527e-105
-1.87025e-105
-1.86759e-106
4.69495e-107
2.71451e-107
6.50341e-108
6.1849e-109
-1.71463e-109
-9.43355e-110
-2.19016e-110
-1.90067e-111
6.30847e-112
3.21611e-112
7.14717e-113
4.99495e-114
-1.79123e-114
)
;

boundaryField
{
    sides
    {
        type            zeroGradient;
    }
    empty
    {
        type            empty;
    }
}


// ************************************************************************* //
