/*--------------------------------*- C++ -*----------------------------------*\
| =========                 |                                                 |
| \\      /  F ield         | OpenFOAM: The Open Source CFD Toolbox           |
|  \\    /   O peration     | Version:  2312                                  |
|   \\  /    A nd           | Website:  www.openfoam.com                      |
|    \\/     M anipulation  |                                                 |
\*---------------------------------------------------------------------------*/
FoamFile
{
    version     2.0;
    format      ascii;
    arch        "LSB;label=32;scalar=64";
    class       volScalarField;
    location    "4";
    object      T;
}
// * * * * * * * * * * * * * * * * * * * * * * * * * * * * * * * * * * * * * //

dimensions      [0 0 0 1 0 0 0];

internalField   nonuniform List<scalar> 
1000
(
0.000214543
1.67156e-06
0.000173094
-0.000121067
0.000223991
-0.000253316
0.000352362
-0.000441526
0.000575462
-0.000730841
0.000931529
-0.00117565
0.00147785
-0.0018451
0.00229043
-0.002825
0.00346226
-0.00421524
0.00509736
-0.0061212
0.00729804
-0.0086368
0.010143
-0.0118177
0.0136557
-0.0156448
0.0177639
-0.019982
0.022257
-0.0245354
0.0267519
-0.0288299
0.0306831
-0.032218
0.0333368
-0.0339425
0.0339439
-0.0332623
0.031838
-0.0296379
0.0266619
-0.0229488
0.0185803
-0.0136834
0.00842847
-0.00302527
-0.0022858
0.00724589
-0.0115934
0.0150824
-0.0175027
0.0186996
-0.0185919
0.0171858
-0.0145832
0.0109813
-0.00666479
0.00198738
0.00265459
-0.00685589
0.0102405
-0.0125
0.0134294
-0.012953
0.0111403
-0.00820468
0.00448662
-0.000419496
-0.00351775
0.00685709
-0.00920014
0.0102713
-0.00995785
0.0083298
-0.00563567
0.00227242
0.00126761
-0.00446642
0.00685713
-0.00809624
0.00801941
-0.00667083
0.00429949
-0.00132125
-0.00174878
0.00438321
-0.0061344
0.00671491
-0.0060512
0.00429911
-0.00181655
-0.000903247
0.00332644
-0.00498359
0.00556392
-0.00497921
0.00338267
-0.00113729
-0.00126126
0.00329201
-0.00452335
0.00470948
-0.0038463
0.00217238
-0.000113467
-0.00181781
0.00314416
-0.00353832
0.00290182
-0.00138708
-0.000643863
0.00271498
-0.0043623
0.00525792
-0.00529881
0.00463574
-0.00363342
0.00277147
-0.00251302
0.00317734
-0.00485294
0.00737652
-0.0103848
0.0134241
-0.0160861
0.0181271
-0.0195359
0.0205264
-0.0214572
0.022703
-0.0245173
0.0269322
-0.0297266
0.0324767
-0.0346717
0.0358577
-0.0357638
0.0343668
-0.0318758
0.0286423
-0.0250293
0.0212889
-0.0174916
0.0135364
-0.00923612
0.00444727
0.000807058
-0.00626997
0.0114695
-0.015821
0.0187806
-0.0199946
0.0193933
-0.0171968
0.0138335
-0.00980681
0.00556235
-0.0014068
-0.00249536
0.00605534
-0.00916343
0.0116157
-0.0131079
0.0133088
-0.0119894
0.00915367
-0.00511189
0.000456596
0.00406015
-0.00770881
0.00995982
-0.0105941
0.00971327
-0.00765615
0.00486765
-0.00177733
-0.00126557
0.00398954
-0.00615631
0.00752234
-0.00784852
0.00697018
-0.00490016
0.00190958
0.00146888
-0.00454055
0.00662952
-0.00727794
0.00638661
-0.0042405
0.00141011
0.00142959
-0.00368989
0.00499987
-0.00524408
0.0045183
-0.00304836
0.00112141
0.000945509
-0.00281052
0.00412075
-0.00456622
0.00397478
-0.00241063
0.000218066
0.0020354
-0.00371821
0.00434434
-0.00374821
0.00214745
-6.30721e-05
-0.00186954
0.00311804
-0.0034109
0.00278249
-0.00150888
-1.66111e-05
0.00140543
-0.00235327
0.00267355
-0.00230835
0.00133863
7.38691e-06
-0.0013735
0.00234964
-0.00260008
0.00200294
-0.000731656
-0.000778513
0.00198444
-0.00245088
0.00203003
-0.000918724
-0.00043398
0.00152193
-0.00198487
0.00172871
-0.000922548
-0.000103992
0.000999221
-0.00150102
0.00149215
-0.00100611
0.000205345
0.000656181
-0.00129106
0.00146299
-0.00108223
0.000269057
0.000663692
-0.00132614
0.00142534
-0.00091261
1.97444e-05
0.000845828
-0.00129802
0.0011575
-0.000527477
-0.000275043
0.000886443
-0.00106702
0.000790075
-0.000220725
-0.000382852
0.000783857
-0.00084735
0.000570546
-7.16983e-05
-0.000450115
0.000779366
-0.000765826
0.000399334
0.000163826
-0.000655988
0.000825748
-0.000576782
3.37691e-05
0.000515534
-0.00077817
0.00062233
-0.000149986
-0.000368791
0.000656457
-0.000582234
0.000219364
0.000217399
-0.00050226
0.000513714
-0.000276783
-7.22339e-05
0.000362392
-0.000463551
0.000335331
-4.12892e-05
-0.000274625
0.000448836
-0.000380436
9.60282e-05
0.000249264
-0.000452205
0.000385376
-8.52785e-05
-0.000262305
0.000439316
-0.000338804
3.46214e-05
0.000272072
-0.000390195
0.00026176
1.23764e-05
-0.000252368
0.000319769
-0.00019511
-2.84548e-05
0.000215007
-0.000265536
0.000163472
2.6656e-05
-0.000196487
0.00024875
-0.000149719
-4.53596e-05
0.000215932
-0.000247553
0.000112023
0.000102942
-0.000247462
0.00021675
-3.23055e-05
-0.000170455
0.000243663
-0.000139131
-5.81028e-05
0.0001999
-0.000189396
4.79166e-05
0.000112533
-0.000179718
0.000119206
1.3857e-05
-0.000124777
0.000145042
-6.97581e-05
-4.739e-05
0.000129771
-0.000123222
3.02476e-05
8.67632e-05
-0.000142896
9.19647e-05
3.20448e-05
-0.00013358
0.000129446
-2.04388e-05
-0.000104453
0.000141439
-6.13229e-05
-6.54662e-05
0.000131631
-8.63377e-05
-2.49666e-05
0.000106268
-9.55094e-05
1.13726e-05
7.22083e-05
-9.17482e-05
4.05736e-05
3.56404e-05
-7.93588e-05
6.1756e-05
1.44196e-06
-6.27849e-05
7.53151e-05
-2.70127e-05
-4.57205e-05
8.21733e-05
-4.78031e-05
-3.06075e-05
8.32804e-05
-6.0327e-05
-1.84863e-05
7.94241e-05
-6.51486e-05
-9.15382e-06
7.13134e-05
-6.38203e-05
-1.56956e-06
5.98245e-05
-5.86207e-05
5.57266e-06
4.62484e-05
-5.21501e-05
1.32341e-05
3.23751e-05
-4.67846e-05
2.15512e-05
2.02936e-05
-4.40823e-05
2.96642e-05
1.19024e-05
-4.43284e-05
3.59752e-05
8.26909e-06
-4.64424e-05
3.88101e-05
9.11442e-06
-4.83997e-05
3.72673e-05
1.27348e-05
-4.81187e-05
3.18702e-05
1.65545e-05
-4.45096e-05
2.46209e-05
1.82123e-05
-3.818e-05
1.82589e-05
1.67406e-05
-3.13217e-05
1.49422e-05
1.31848e-05
-2.66453e-05
1.49948e-05
1.01499e-05
-2.57899e-05
1.65297e-05
1.02988e-05
-2.81136e-05
1.64108e-05
1.45523e-05
-3.07769e-05
1.22144e-05
2.1169e-05
-3.03583e-05
4.01956e-06
2.65655e-05
-2.51563e-05
-5.33586e-06
2.76272e-05
-1.65629e-05
-1.20463e-05
2.39939e-05
-8.2311e-06
-1.41264e-05
1.84405e-05
-3.3112e-06
-1.30261e-05
1.4672e-05
-1.809e-06
-1.2429e-05
1.40457e-05
-5.01407e-07
-1.48375e-05
1.41126e-05
4.04236e-06
-1.88509e-05
1.07534e-05
1.17662e-05
-2.00208e-05
2.40649e-06
1.84563e-05
-1.5074e-05
-7.67861e-06
1.93833e-05
-5.59241e-06
-1.39718e-05
1.40511e-05
3.0022e-06
-1.39695e-05
6.90778e-06
6.73427e-06
-1.06252e-05
2.6339e-06
7.02338e-06
-8.6581e-06
1.00414e-06
8.31488e-06
-8.60376e-06
-2.22978e-06
1.16819e-05
-6.13717e-06
-8.81826e-06
1.2558e-05
1.58897e-06
-1.41408e-05
6.56888e-06
1.04816e-05
-1.21634e-05
-3.50911e-06
1.31901e-05
-3.66983e-06
-9.78169e-06
8.24158e-06
3.85084e-06
-8.79444e-06
1.93832e-06
5.67639e-06
-5.32722e-06
-5.99884e-07
5.2675e-06
-4.20962e-06
-2.13091e-06
6.91103e-06
-2.63956e-06
-6.65084e-06
7.20195e-06
3.71286e-06
-1.00095e-05
7.48646e-07
1.02832e-05
-5.21919e-06
-8.1489e-06
8.36052e-06
4.46116e-06
-9.39606e-06
-4.33578e-07
8.25591e-06
-2.7719e-06
-5.48712e-06
4.3659e-06
2.00395e-06
-4.08883e-06
1.21714e-06
2.19485e-06
-3.4023e-06
6.96168e-07
4.1426e-06
-3.81135e-06
-3.43401e-06
6.43404e-06
1.61175e-06
-8.05849e-06
7.81827e-07
8.46535e-06
-3.15008e-06
-7.718e-06
4.97616e-06
6.09869e-06
-5.91338e-06
-4.01196e-06
5.82278e-06
1.88332e-06
-4.76272e-06
-7.47767e-08
2.94398e-06
-1.17007e-06
-6.67535e-07
1.74781e-06
-1.73916e-06
-1.68776e-06
3.9755e-06
1.12325e-06
-5.80388e-06
-2.51635e-07
7.06723e-06
-7.08244e-07
-7.68992e-06
1.55388e-06
7.66701e-06
-2.12802e-06
-7.04701e-06
2.33674e-06
5.91352e-06
-2.15653e-06
-4.36974e-06
1.63182e-06
2.52806e-06
-8.64264e-07
-5.05629e-07
-4.0783e-09
-1.57522e-06
8.12359e-07
3.58372e-06
-1.40558e-06
-5.37792e-06
1.66053e-06
6.80573e-06
-1.5107e-06
-7.71308e-06
9.66725e-07
7.96109e-06
-1.28283e-07
-7.45236e-06
-8.17567e-07
6.16344e-06
1.61609e-06
-4.17707e-06
-1.98526e-06
1.7046e-06
1.67563e-06
9.13012e-07
-5.42308e-07
-3.2369e-06
-1.38519e-06
4.80078e-06
3.85619e-06
-5.21724e-06
-6.39929e-06
4.3026e-06
8.39e-06
-2.18804e-06
-9.19241e-06
-6.26911e-07
8.35751e-06
3.32299e-06
-5.83115e-06
-4.93862e-06
2.09687e-06
4.66404e-06
1.83067e-06
-2.18476e-06
-4.62361e-06
-2.04806e-06
5.06775e-06
6.7694e-06
-2.59761e-06
-1.01914e-05
-2.26303e-06
1.06401e-05
7.80905e-06
-7.37058e-06
-1.1606e-05
1.21518e-06
1.14803e-05
5.35506e-06
-6.73313e-06
-9.04119e-06
-1.02049e-06
7.29886e-06
8.05065e-06
-5.95165e-08
-1.00707e-05
-9.4432e-06
4.73164e-06
1.56754e-05
6.22543e-06
-1.37366e-05
-1.68225e-05
2.96329e-06
1.9688e-05
1.11977e-05
-1.10386e-05
-1.92682e-05
-5.20779e-06
1.3845e-05
1.79786e-05
3.6106e-06
-1.58827e-05
-2.0953e-05
-2.92504e-06
2.24415e-05
2.56575e-05
-2.11516e-06
-3.17456e-05
-2.68464e-05
1.03265e-05
3.83162e-05
2.49334e-05
-1.5792e-05
-4.11685e-05
-2.58567e-05
1.56033e-05
4.50996e-05
3.3948e-05
-1.24845e-05
-5.43125e-05
-4.79161e-05
9.58073e-06
6.71123e-05
6.42321e-05
-4.59331e-06
-7.7221e-05
-8.24567e-05
-1.01742e-05
7.83382e-05
0.000105468
4.28191e-05
-6.55039e-05
-0.000133626
-9.69452e-05
3.16877e-05
0.000157269
0.00016883
3.54685e-05
-0.000152039
-0.000243237
-0.000149122
7.9887e-05
0.000283728
0.000304567
9.89456e-05
-0.00022132
-0.000444978
-0.000390026
-3.67648e-05
0.000425239
0.000690812
0.00053318
-2.73097e-05
-0.000700977
-0.00107707
-0.000856737
-4.14982e-05
0.00102091
0.00176575
0.0016762
0.000575687
-0.00120065
-0.00287184
-0.0035184
-0.00250536
0.000167381
0.00373837
0.00684011
0.00790383
0.00571226
-5.25154e-05
-0.00844089
-0.0171825
-0.0229789
-0.0220547
-0.0108162
0.0135314
0.0525142
0.106141
0.172915
0.250095
0.334131
0.421156
0.507426
0.58967
0.665327
0.732667
0.79081
0.839608
0.879482
0.911227
0.935869
0.954539
0.968373
0.978417
0.985558
0.990517
0.993872
0.996095
0.997555
0.998512
0.999127
0.999496
0.999695
0.999802
0.99988
0.999951
1
1.00001
0.999983
0.999961
0.999972
1.00001
1.00004
1.00003
0.999985
0.999951
0.999964
1.00002
1.00006
1.00005
0.999987
0.999934
0.999939
1
1.00007
1.00008
1.00001
0.999924
0.999891
0.999954
1.00007
1.00014
1.0001
0.999964
0.999842
0.999835
0.999967
1.00015
1.00024
1.00015
0.999925
0.999717
0.999691
0.999899
1.00023
1.00045
1.00039
1.00003
0.999574
0.999314
0.99947
1.00002
1.0007
1.00108
1.00086
1.00004
0.998974
0.99823
0.998327
0.999431
1.0012
1.00287
1.00351
1.00251
0.99984
0.996262
0.993152
0.992092
0.994293
1.00006
1.00844
1.01717
1.02297
1.02206
1.01083
0.98647
0.947477
0.893851
0.827089
0.749916
0.665872
0.578835
0.492563
0.410331
0.334686
0.26734
0.209183
0.160378
0.120515
0.0887851
0.064145
0.0454592
0.03161
0.021571
0.0144494
0.00950263
0.00613653
0.00389179
0.00242423
0.00148333
0.000891595
0.000526483
0.000305418
0.000174056
9.74429e-05
5.35848e-05
2.8941e-05
1.53496e-05
7.99295e-06
4.08535e-06
2.04893e-06
1.00795e-06
4.86133e-07
2.29739e-07
1.06311e-07
4.81302e-08
2.12963e-08
9.19759e-09
3.87093e-09
1.58419e-09
6.28674e-10
2.40989e-10
8.87411e-11
3.11294e-11
1.02603e-11
3.09792e-12
8.09723e-13
1.52688e-13
-2.50065e-15
-2.2742e-14
-1.57605e-14
-8.01225e-15
-3.48564e-15
-1.35386e-15
-4.73584e-16
-1.47109e-16
-3.85418e-17
-7.06041e-18
2.07826e-19
1.0453e-18
6.71619e-19
3.13683e-19
1.22673e-19
4.13586e-20
1.17765e-20
2.54448e-21
1.9886e-22
-1.82756e-22
-1.41097e-22
-6.77848e-23
-2.60137e-23
-8.31144e-24
-2.12753e-24
-3.47589e-25
3.36307e-26
6.13211e-26
3.38159e-26
1.36266e-26
4.42246e-27
1.12682e-27
1.7817e-28
-2.01741e-29
-3.20729e-29
-1.68387e-29
-6.41403e-30
-1.92207e-30
-4.23284e-31
-3.71363e-32
2.44756e-32
1.82103e-32
7.87033e-33
2.56876e-33
6.29516e-34
8.5747e-35
-1.79122e-35
-1.91429e-35
-8.89446e-36
-2.98833e-36
-7.44778e-37
-1.05328e-37
1.82516e-38
2.08372e-38
9.58207e-39
3.12779e-39
7.36745e-40
8.55067e-41
-2.74742e-41
-2.33054e-41
-9.77486e-42
-2.92186e-42
-5.94446e-43
-2.92815e-44
4.24461e-44
2.51762e-44
9.09877e-45
2.3309e-45
3.41523e-46
-4.5238e-47
-5.58075e-47
-2.44469e-47
-7.28134e-48
-1.42769e-48
-4.67275e-50
1.09134e-49
5.95112e-50
1.99116e-50
4.52644e-51
4.41555e-52
-1.92667e-52
-1.35852e-52
-4.98407e-53
-1.23521e-53
-1.60027e-54
3.20367e-55
2.99103e-55
1.17206e-55
3.04336e-56
4.39648e-57
-5.5115e-58
-6.4923e-58
-2.6296e-58
-6.92035e-59
-1.01977e-59
1.12395e-60
1.40667e-60
5.66903e-61
1.46503e-61
2.04891e-62
-2.8265e-63
-3.04252e-63
-1.1743e-63
-2.88544e-64
-3.51253e-65
7.83068e-66
6.4975e-66
2.32256e-66
5.23663e-67
4.74882e-68
-2.12642e-68
-1.34641e-68
-4.33526e-69
-8.57084e-70
-3.42321e-71
5.35419e-71
2.65544e-71
7.50685e-72
1.20895e-72
-6.16306e-74
-1.22562e-73
-4.88565e-74
-1.17927e-74
-1.23357e-75
2.80121e-76
)
;

boundaryField
{
    sides
    {
        type            zeroGradient;
    }
    empty
    {
        type            empty;
    }
}


// ************************************************************************* //
