/*--------------------------------*- C++ -*----------------------------------*\
| =========                 |                                                 |
| \\      /  F ield         | OpenFOAM: The Open Source CFD Toolbox           |
|  \\    /   O peration     | Version:  2312                                  |
|   \\  /    A nd           | Website:  www.openfoam.com                      |
|    \\/     M anipulation  |                                                 |
\*---------------------------------------------------------------------------*/
FoamFile
{
    version     2.0;
    format      ascii;
    arch        "LSB;label=32;scalar=64";
    class       volScalarField;
    location    "3.3";
    object      T;
}
// * * * * * * * * * * * * * * * * * * * * * * * * * * * * * * * * * * * * * //

dimensions      [0 0 0 1 0 0 0];

internalField   nonuniform List<scalar> 
1000
(
0
0
0
0
0
0
0
0
0
0
0
0
0
0
0
0
0
0
0
0
0
0
0
0
0
0
0
0
0
0
0
0
0
0
0
0
0
0
0
0
0
0
0
0
0
0
0
0
0
0
0
0
0
0
0
0
0
0
0
0
0
0
0
0
0
0
0
0
0
0
0
0
0
0
0
0
0
0
0
0
0
0
0
0
0
0
0
0
0
0
0
0
0
0
0
0
0
0
0
0
0
0
0
0
0
0
0
0
0
0
0
0
0
0
0
0
0
0
0
0
0
0
0
0
0
0
0
0
0
0
0
0
0
0
0
0
0
0
0
0
0
0
0
0
0
0
0
0
0
0
0
0
0
0
0
0
0
0
0
0
0
0
0
0
0
0
0
0
0
0
0
0
0
0
0
0
0
0
0
0
0
0
0
0
0
0
0
0
0
0
0
0
0
0
0
0
0
0
0
0
0
0
0
0
0
0
0
0
0
0
0
0
0
0
0
0
0
0
0
0
0
0
0
0
0
0
0
0
0
0
0
0
0
0
0
0
0
0
0
0
0
0
0
0
0
0
0
0
0
0
0
0
0
0
0
0
0
0
0
0
0
0
0
0
0
0
0
0
0
0
0
0
0
0
0
0
0
0
0
0
0
0
0
0
0
0
0
0
0
0
0
0
0
0
0
0
0
0
0
0
0
0
0
0
0
0
0
0
0
0
0
0
0
0
0
0
0
0
0
0
0
0
0
0
0
0
0
0
0
0
0
0
0
0
0
0
0
0
0
0
0
0
0
0
0
0
0
0
0
0
0
0
0
0
0
0
0
0
0
0
0
0
0
0
0
0
0
0
0
0
0
0
0
0
0
0
0
0
0
0
0
0
0
0
0
0
0
0
0
0
0
0
0
0
0
0
0
0
0
0
0
0
0
0
2.90479e-125
-1.94997e-109
1.1717e-101
-6.77688e-98
-7.80856e-96
-3.43244e-94
-1.43282e-93
6.94792e-91
4.89213e-89
2.09092e-87
6.75941e-86
1.78706e-84
4.02511e-83
7.92432e-82
1.38819e-80
2.1928e-79
3.15569e-78
4.17176e-77
5.10055e-76
5.80019e-75
6.16412e-74
6.14719e-73
5.77275e-72
5.12045e-71
4.30122e-70
3.42943e-69
2.60043e-68
1.87837e-67
1.29427e-66
8.51635e-66
5.35557e-65
3.22016e-64
1.85133e-63
1.01721e-62
5.33501e-62
2.66482e-61
1.26267e-60
5.63687e-60
2.34187e-59
8.8373e-59
2.86148e-58
6.55675e-58
-2.88887e-58
-1.6603e-56
-1.4179e-55
-9.10478e-55
-5.1113e-54
-2.63649e-53
-1.27843e-52
-5.901e-52
-2.61277e-51
-1.11537e-50
-4.60708e-50
-1.84615e-49
-7.19139e-49
-2.72739e-48
-1.00838e-47
-3.63841e-47
-1.28233e-46
-4.41822e-46
-1.48925e-45
-4.9143e-45
-1.58861e-44
-5.03407e-44
-1.56476e-43
-4.7741e-43
-1.43066e-42
-4.21385e-42
-1.22069e-41
-3.48022e-41
-9.77129e-41
-2.7033e-40
-7.37318e-40
-1.9834e-39
-5.26373e-39
-1.37841e-38
-3.56185e-38
-9.08127e-38
-2.28398e-37
-5.66456e-37
-1.38481e-36
-3.33553e-36
-7.91189e-36
-1.84731e-35
-4.24395e-35
-9.59067e-35
-2.13165e-34
-4.66019e-34
-1.00244e-33
-2.12308e-33
-4.43192e-33
-9.13251e-33
-1.8613e-32
-3.76098e-32
-7.55427e-32
-1.51224e-31
-3.02359e-31
-6.04582e-31
-1.20897e-30
-2.41415e-30
-4.79998e-30
-9.46411e-30
-1.84141e-29
-3.51605e-29
-6.5484e-29
-1.18128e-28
-2.04618e-28
-3.36263e-28
-5.1424e-28
-7.05123e-28
-7.89091e-28
-4.62429e-28
9.26694e-28
4.62059e-27
1.27436e-26
2.85092e-26
5.59884e-26
9.86838e-26
1.55511e-25
2.11922e-25
2.23043e-25
8.54622e-26
-4.03737e-25
-1.59528e-24
-4.0215e-24
-8.3616e-24
-1.52282e-23
-2.45806e-23
-3.4461e-23
-3.86403e-23
-2.27247e-23
4.15555e-23
2.0353e-22
5.40471e-22
1.15973e-21
2.18733e-21
3.72804e-21
5.77493e-21
8.03997e-21
9.67796e-21
8.89082e-21
2.443e-21
-1.47914e-20
-4.99752e-20
-1.11641e-19
-2.07406e-19
-3.38937e-19
-4.92846e-19
-6.26306e-19
-6.47061e-19
-3.89397e-19
4.08623e-19
2.11516e-18
5.18179e-18
1.00573e-17
1.6997e-17
2.57225e-17
3.49021e-17
4.14786e-17
3.99329e-17
2.10982e-17
-2.94138e-17
-1.32585e-16
-3.16193e-16
-6.02977e-16
-9.73949e-16
-1.33165e-15
-1.42064e-15
4.09202e-16
5.71376e-15
1.07453e-14
7.26045e-15
-1.42309e-14
-3.7638e-14
-2.58911e-14
4.3505e-14
1.09298e-13
6.35457e-14
-1.3647e-13
-3.01815e-13
-1.33689e-13
4.09318e-13
7.95007e-13
2.80409e-13
-1.15195e-12
-2.07984e-12
-6.84981e-13
3.09272e-12
5.46463e-12
1.87591e-12
-7.72519e-12
-1.43797e-11
-6.40984e-12
1.82734e-11
3.82058e-11
2.25465e-11
-3.88752e-11
-1.00376e-10
-7.77793e-11
6.94233e-11
2.54558e-10
2.48742e-10
-6.8365e-11
-5.84028e-10
-7.64045e-10
-1.65952e-10
1.15963e-09
2.13387e-09
1.33536e-09
-1.74525e-09
-5.35683e-09
-5.41483e-09
3.65896e-10
1.07936e-08
1.71734e-08
1.0028e-08
-1.38102e-08
-4.31376e-08
-4.70588e-08
-8.79801e-09
7.16416e-08
1.41735e-07
1.23772e-07
-2.58842e-08
-2.71919e-07
-4.43758e-07
-3.34088e-07
1.60973e-07
9.0719e-07
1.38144e-06
1.0221e-06
-4.66663e-07
-2.73479e-06
-4.36546e-06
-3.65205e-06
3.96984e-07
7.28055e-06
1.36542e-05
1.38201e-05
4.92864e-06
-1.44099e-05
-3.81007e-05
-5.11499e-05
-4.01832e-05
3.59113e-06
7.7849e-05
0.000157252
0.000190485
0.000139864
-2.26256e-05
-0.000292446
-0.000593707
-0.000770361
-0.000681824
-0.000222945
0.000663114
0.00186963
0.00306905
0.00366416
0.00320421
0.00129141
-0.0024116
-0.00780885
-0.0141929
-0.020148
-0.0232387
-0.0217096
-0.0138645
0.00263656
0.029675
0.0683865
0.11899
0.180714
0.251856
0.329948
0.412029
0.49495
0.575684
0.651594
0.720621
0.781391
0.833222
0.876069
0.910402
0.937063
0.95712
0.971723
0.982001
0.988982
0.993546
0.996409
0.998123
0.999095
0.999611
0.999863
0.99997
0.999999
1
1
1
1
1
1
1
1
1
1
1
1
1
1
1
1
1
1
1
1
1
1
1
1
1
1
1
1
1
1
1
0.999999
0.999999
0.999999
1
1
1
1
1
0.999993
0.999986
0.999986
0.999995
1.00001
1.00004
1.00005
1.00004
0.999996
0.999922
0.999843
0.99981
0.999861
1.00002
1.00029
1.00059
1.00077
1.00068
1.00022
0.999336
0.998127
0.996929
0.996338
0.996799
0.998718
1.00242
1.00782
1.01421
1.02015
1.02323
1.02169
1.01383
0.997316
0.970263
0.931537
0.880921
0.819186
0.748038
0.669943
0.587864
0.504948
0.424223
0.348323
0.279308
0.21855
0.166731
0.123894
0.0895706
0.0629163
0.042866
0.0282676
0.0179927
0.0110139
0.00645119
0.00358952
0.00187639
0.000904723
0.00038866
0.000137287
3.03183e-05
6.1829e-07
1.13637e-16
1.12497e-16
1.10409e-16
1.06907e-16
1.02299e-16
9.68483e-17
9.07952e-17
8.43538e-17
7.77107e-17
7.10251e-17
6.44298e-17
5.80316e-17
5.19142e-17
4.61395e-17
4.07506e-17
3.57739e-17
3.12218e-17
2.70948e-17
2.33843e-17
2.00744e-17
1.71435e-17
1.45665e-17
1.23159e-17
1.03629e-17
8.6787e-18
7.23488e-18
6.00424e-18
4.96111e-18
4.08167e-18
3.34406e-18
2.72854e-18
2.21741e-18
1.79497e-18
1.44745e-18
1.16283e-18
9.30761e-19
7.4233e-19
5.89967e-19
4.67264e-19
3.68833e-19
2.90176e-19
2.27554e-19
1.77879e-19
1.38615e-19
1.07687e-19
8.34076e-20
6.44111e-20
4.95963e-20
3.80792e-20
2.91538e-20
2.22581e-20
1.69465e-20
1.28672e-20
9.74351e-21
7.35839e-21
5.54238e-21
4.16358e-21
3.11961e-21
2.33134e-21
1.73775e-21
1.29197e-21
9.58088e-22
7.08679e-22
5.22864e-22
3.84792e-22
2.82465e-22
2.06826e-22
1.5106e-22
1.10052e-22
7.99754e-23
5.79724e-23
4.19173e-23
3.02326e-23
2.17503e-23
1.56086e-23
1.11731e-23
7.978e-24
5.68229e-24
4.03704e-24
2.86097e-24
2.02243e-24
1.42609e-24
1.00306e-24
7.03758e-25
4.92527e-25
3.43834e-25
2.39432e-25
1.66314e-25
1.15236e-25
7.96462e-26
5.49108e-26
3.77631e-26
2.59057e-26
1.77273e-26
1.21007e-26
8.23951e-27
5.59648e-27
3.79187e-27
2.56282e-27
1.72786e-27
1.16207e-27
7.79622e-28
5.21759e-28
3.48329e-28
2.31978e-28
1.54114e-28
1.02136e-28
6.75238e-29
4.45328e-29
2.92988e-29
1.92295e-29
1.25904e-29
8.22361e-30
5.35847e-30
3.4832e-30
2.25878e-30
1.46128e-30
9.43103e-31
6.07226e-31
3.90043e-31
2.49946e-31
1.59792e-31
1.01915e-31
6.48492e-32
4.11672e-32
2.60725e-32
1.64741e-32
1.03851e-32
6.53145e-33
4.09831e-33
2.56564e-33
1.60246e-33
9.98575e-34
6.20838e-34
3.85109e-34
2.3834e-34
1.47172e-34
9.06704e-35
5.57344e-35
3.41823e-35
2.0917e-35
1.2771e-35
7.77992e-36
4.72884e-36
2.86792e-36
1.73545e-36
1.04784e-36
6.31271e-37
3.79471e-37
2.27606e-37
1.36219e-37
8.13462e-38
4.84717e-38
2.88199e-38
1.70983e-38
1.01221e-38
5.97924e-39
3.5244e-39
2.07295e-39
1.21663e-39
7.1252e-40
4.16396e-40
2.42823e-40
1.41302e-40
8.20512e-41
4.75446e-41
2.74915e-41
1.58628e-41
9.13376e-42
5.24815e-42
3.00922e-42
1.72184e-42
9.83167e-43
5.6022e-43
3.18558e-43
1.80767e-43
1.02365e-43
5.78484e-44
3.2624e-44
1.83608e-44
1.03123e-44
5.7801e-45
3.23317e-45
1.80484e-45
1.00547e-45
5.59009e-46
3.10165e-46
1.71747e-46
9.49107e-47
5.23442e-47
2.88106e-47
1.58259e-47
8.67602e-48
4.74687e-48
2.59199e-48
1.41254e-48
7.68258e-49
4.17022e-49
2.25921e-49
)
;

boundaryField
{
    sides
    {
        type            zeroGradient;
    }
    empty
    {
        type            empty;
    }
}


// ************************************************************************* //
