/*--------------------------------*- C++ -*----------------------------------*\
| =========                 |                                                 |
| \\      /  F ield         | OpenFOAM: The Open Source CFD Toolbox           |
|  \\    /   O peration     | Version:  2312                                  |
|   \\  /    A nd           | Website:  www.openfoam.com                      |
|    \\/     M anipulation  |                                                 |
\*---------------------------------------------------------------------------*/
FoamFile
{
    version     2.0;
    format      ascii;
    arch        "LSB;label=32;scalar=64";
    class       volScalarField;
    location    "3.6";
    object      T;
}
// * * * * * * * * * * * * * * * * * * * * * * * * * * * * * * * * * * * * * //

dimensions      [0 0 0 1 0 0 0];

internalField   nonuniform List<scalar> 
1000
(
1.4792e-304
-5.05272e-304
4.15622e-303
-3.17414e-302
2.42501e-301
-1.84659e-300
1.40175e-299
-1.06072e-298
8.00124e-298
-6.01643e-297
4.50962e-296
-3.36942e-295
2.50946e-294
-1.86299e-293
1.37861e-292
-1.01688e-291
7.47631e-291
-5.47889e-290
4.00202e-289
-2.91368e-288
2.11436e-287
-1.52926e-286
1.10241e-285
-7.92074e-285
5.67203e-284
-4.04817e-283
2.87952e-282
-2.04135e-281
1.44227e-280
-1.01554e-279
7.12644e-279
-4.98381e-278
3.47343e-277
-2.41246e-276
1.66978e-275
-1.15173e-274
7.91642e-274
-5.42235e-273
3.70102e-272
-2.51723e-271
1.70604e-270
-1.15215e-269
7.75325e-269
-5.19877e-268
3.47341e-267
-2.3123e-266
1.53376e-265
-1.01365e-264
6.67472e-264
-4.37908e-263
2.86241e-262
-1.86412e-261
1.20949e-260
-7.8182e-260
5.03482e-259
-3.23017e-258
2.06455e-257
-1.31454e-256
8.33805e-256
-5.26855e-255
3.31623e-254
-2.07931e-253
1.29869e-252
-8.07969e-252
5.00704e-251
-3.09069e-250
1.90025e-249
-1.16369e-248
7.09787e-248
-4.31194e-247
2.60894e-246
-1.57215e-245
9.4352e-245
-5.63935e-244
3.35673e-243
-1.98979e-242
1.1746e-241
-6.90483e-241
4.04194e-240
-2.35608e-239
1.36755e-238
-7.90388e-238
4.54852e-237
-2.60628e-236
1.48691e-235
-8.44598e-235
4.77645e-234
-2.6893e-233
1.50744e-232
-8.41201e-232
4.67308e-231
-2.58428e-230
1.42264e-229
-7.79582e-229
4.25229e-228
-2.30871e-227
1.24763e-226
-6.71053e-226
3.59231e-225
-1.91391e-224
1.01481e-223
-5.35489e-223
2.81193e-222
-1.46937e-221
7.64038e-221
-3.95314e-220
2.03515e-219
-1.04246e-218
5.31276e-218
-2.69375e-217
1.3588e-216
-6.81865e-216
3.40382e-215
-1.69021e-214
8.34845e-214
-4.10147e-213
2.00412e-212
-9.73955e-212
4.70721e-211
-2.26244e-210
1.08133e-209
-5.13906e-209
2.42846e-208
-1.14098e-207
5.3297e-207
-2.47501e-206
1.14255e-205
-5.24293e-205
2.39136e-204
-1.08408e-203
4.88422e-203
-2.18683e-202
9.72956e-202
-4.30126e-201
1.88926e-200
-8.24421e-200
3.5738e-199
-1.53887e-198
6.58152e-198
-2.79553e-197
1.17917e-196
-4.93876e-196
2.05376e-195
-8.47864e-195
3.47455e-194
-1.41325e-193
5.70471e-193
-2.28503e-192
9.08102e-192
-3.58018e-191
1.40003e-190
-5.42964e-190
2.08801e-189
-7.96067e-189
3.00847e-188
-1.12677e-187
4.18154e-187
-1.53727e-186
5.59731e-186
-2.01797e-185
7.20183e-185
-2.54353e-184
8.88714e-184
-3.07093e-183
1.04906e-182
-3.54142e-182
1.18087e-181
-3.88739e-181
1.2627e-180
-4.04439e-180
1.27645e-179
-3.96633e-179
1.21224e-178
-3.64009e-178
1.07241e-177
-3.09465e-177
8.72899e-177
-2.40029e-176
6.41186e-176
-1.65586e-175
4.10523e-175
-9.66449e-175
2.12035e-174
-4.17644e-174
6.70814e-174
-5.51549e-174
-1.74145e-173
1.22922e-172
-4.89492e-172
1.58356e-171
-4.48435e-171
1.13101e-170
-2.50792e-170
4.61323e-170
-5.57864e-170
-3.80334e-170
5.50488e-169
-2.36593e-168
7.56991e-168
-2.01006e-167
4.455e-167
-7.613e-167
6.1805e-167
2.13246e-166
-1.391e-165
5.00384e-165
-1.38246e-164
3.03635e-164
-4.76583e-164
1.7469e-164
2.32128e-163
-1.15577e-162
3.65488e-162
-8.75078e-162
1.50376e-161
-9.56539e-162
-5.54723e-161
3.04679e-160
-9.68406e-160
2.23112e-159
-3.38209e-159
1.49078e-160
2.11604e-158
-9.11609e-158
2.50771e-157
-4.7377e-157
3.83094e-157
1.43398e-156
-8.4327e-156
2.58214e-155
-5.27707e-155
5.21227e-155
1.23304e-154
-8.34796e-154
2.60168e-153
-5.19642e-153
4.35565e-153
1.55607e-152
-8.95962e-152
2.56584e-151
-4.45309e-151
1.26465e-151
2.31831e-150
-9.81593e-150
2.33887e-149
-2.83065e-149
-3.85809e-149
3.2509e-148
-9.92321e-148
1.71138e-147
-2.19484e-148
-9.88816e-147
3.8192e-146
-7.97596e-146
5.58025e-146
2.92348e-145
-1.41448e-144
3.31881e-144
-3.20446e-144
-9.07668e-144
5.23301e-143
-1.29994e-142
1.36431e-142
3.22908e-142
-1.97355e-141
4.88661e-141
-4.78273e-141
-1.35795e-140
7.59849e-140
-1.75874e-139
1.30747e-139
6.36441e-139
-2.93723e-138
5.91622e-138
-1.70539e-138
-3.04698e-137
1.10482e-136
-1.75364e-136
-1.02377e-136
1.39629e-135
-3.86384e-135
3.87553e-135
1.10938e-134
-5.84827e-134
1.16582e-133
-1.08724e-134
-6.69347e-133
2.13097e-132
-2.5093e-132
-5.1573e-132
3.07038e-131
-6.15993e-131
5.66121e-133
3.67009e-130
-1.08969e-129
1.0139e-129
3.53626e-129
-1.63189e-128
2.60811e-128
2.21767e-128
-2.18173e-127
4.86836e-127
-7.81876e-128
-2.66336e-126
7.86906e-126
-6.01021e-126
-2.99329e-125
1.17067e-124
-1.40982e-124
-3.08972e-124
1.65444e-123
-2.58173e-123
-2.88533e-123
2.2678e-122
-4.21592e-122
-2.34838e-122
3.06314e-121
-6.44217e-121
-1.52086e-121
4.12904e-120
-9.42657e-120
-5.87924e-121
5.60846e-119
-1.33669e-118
-1.47883e-123
7.72133e-118
-1.84631e-117
-6.76278e-119
1.07881e-116
-2.48387e-116
-4.31478e-117
1.5244e-115
-3.23725e-115
-1.38252e-115
2.16203e-114
-4.03889e-114
-3.38333e-114
3.04497e-113
-4.71512e-113
-7.10844e-113
4.20261e-112
-4.91384e-112
-1.34331e-111
5.59274e-111
-4.02016e-111
-2.32937e-110
7.02204e-110
-1.09496e-110
-3.73025e-109
8.03613e-109
5.08617e-109
-5.4987e-108
7.80562e-108
1.57615e-107
-7.3589e-107
5.08224e-107
3.15104e-106
-8.66108e-106
-1.63445e-106
5.1058e-105
-8.28022e-105
-1.35257e-104
6.968e-104
-4.70349e-104
-3.03181e-103
7.78707e-103
3.48499e-103
-4.86735e-102
6.1744e-102
1.65467e-101
-6.07611e-101
7.2989e-102
3.20482e-100
-5.45e-100
-8.97688e-100
4.35228e-99
-1.75469e-99
-2.09975e-98
4.08266e-98
5.36122e-98
-2.99077e-97
1.40828e-97
1.41432e-96
-2.7478e-96
-3.80038e-96
1.99941e-95
-6.67648e-96
-9.83428e-95
1.65704e-94
3.10209e-94
-1.28507e-93
-2.34499e-95
6.88108e-93
-8.38478e-93
-2.63676e-92
7.6255e-92
4.9427e-92
-4.61794e-91
2.70667e-91
2.13296e-90
-3.81495e-90
-7.03844e-90
2.77212e-89
7.38352e-90
-1.53318e-88
1.19967e-88
6.80772e-88
-1.30927e-87
-2.26655e-87
9.02423e-87
3.22238e-87
-4.99649e-86
2.91272e-86
2.33029e-85
-3.57125e-85
-8.9605e-85
2.60889e-84
2.44731e-84
-1.54517e-83
-2.12364e-85
7.96102e-83
-6.009e-83
-3.63032e-82
5.74675e-82
1.44342e-81
-3.94861e-81
-4.65377e-81
2.32259e-80
8.50962e-81
-1.23389e-79
3.3311e-80
6.04946e-79
-5.23536e-79
-2.75741e-78
4.16873e-78
1.16506e-77
-2.70444e-77
-4.48824e-77
1.57601e-76
1.50483e-76
-8.57058e-76
-3.75386e-76
4.43476e-75
6.73316e-77
-2.20901e-74
7.92482e-75
1.06759e-73
-7.56969e-74
-5.03554e-73
5.29415e-73
2.32926e-72
-3.25131e-72
-1.06125e-71
1.8557e-71
4.78315e-71
-1.00997e-70
-2.1423e-70
5.3157e-70
9.58217e-70
-2.72895e-69
-4.3034e-69
1.37418e-68
1.95154e-68
-6.8126e-68
-8.98481e-68
3.33309e-67
4.2181e-67
-1.61151e-66
-2.02447e-66
7.70304e-66
9.93477e-66
-3.63877e-65
-4.97341e-65
1.69641e-64
2.52903e-64
-7.78683e-64
-1.29935e-63
3.5062e-63
6.70623e-63
-1.54007e-62
-3.4579e-62
6.54273e-62
1.77216e-61
-2.6511e-61
-8.98466e-61
9.98833e-61
4.48602e-60
-3.30906e-60
-2.19582e-59
8.07741e-60
1.04836e-58
8.00326e-61
-4.85209e-58
-1.96147e-58
2.15904e-57
1.8285e-57
-9.12333e-57
-1.25945e-56
3.5859e-56
7.52869e-56
-1.25783e-55
-4.09376e-55
3.52837e-55
2.05792e-54
-4.30351e-55
-9.58359e-54
-3.81091e-54
4.09634e-53
4.30918e-53
-1.56602e-52
-2.97671e-52
5.00914e-52
1.68201e-51
-1.04667e-51
-8.27239e-51
-1.46495e-51
3.57144e-50
3.40926e-50
-1.31571e-49
-2.56669e-49
3.71468e-49
1.4426e-48
-4.10571e-49
-6.69918e-48
-4.09731e-48
2.56851e-47
4.13351e-47
-7.38426e-47
-2.49754e-46
8.21045e-47
1.16463e-45
7.9518e-46
-4.2418e-45
-7.75775e-45
1.02651e-44
4.41645e-44
2.93715e-45
-1.8621e-43
-2.16582e-43
5.54945e-43
1.5485e-42
-5.94649e-43
-7.26626e-42
-5.99302e-42
2.36393e-41
5.37346e-41
-3.42534e-41
-2.68339e-40
-1.90934e-40
8.83735e-40
1.92818e-39
-1.1969e-39
-9.60135e-39
-7.72674e-39
2.9515e-38
7.19559e-38
-2.35657e-38
-3.29518e-37
-3.63786e-37
8.40023e-37
2.69204e-36
4.47653e-37
-1.03434e-35
-1.70651e-35
1.66771e-35
9.43476e-35
7.56815e-35
-2.65382e-34
-7.16131e-34
-5.09263e-35
2.79641e-33
4.65782e-33
-3.69819e-33
-2.45906e-32
-2.55288e-32
5.55534e-32
1.93823e-31
1.06099e-31
-5.85238e-31
-1.41927e-30
-1.48987e-31
5.30656e-30
9.89653e-30
-3.20169e-30
-4.42608e-29
-6.71882e-29
4.97451e-29
3.50852e-28
4.54641e-28
-5.06317e-28
-2.69425e-27
-3.1431e-27
4.32402e-27
2.02711e-26
2.2679e-26
-3.28299e-26
-1.5019e-25
-1.72451e-25
2.22971e-25
1.09465e-24
1.37216e-24
-1.30575e-24
-7.78953e-24
-1.11907e-23
5.6897e-24
5.33063e-23
9.11145e-23
-3.33498e-24
-3.41722e-22
-7.21177e-22
-3.09755e-22
1.95374e-21
5.40193e-21
4.82161e-21
-8.82902e-21
-3.70759e-20
-5.1529e-20
1.64192e-20
2.21462e-19
4.48173e-19
2.44825e-19
-1.02072e-18
-3.24308e-18
-4.00686e-18
1.94019e-18
1.86305e-17
3.76781e-17
2.55865e-17
-6.89611e-17
-2.55906e-16
-3.87009e-16
-7.06381e-17
1.15158e-15
3.1005e-15
3.82052e-15
-9.29841e-16
-1.52686e-14
-3.56142e-14
-3.9571e-14
1.77445e-14
1.77805e-13
4.01919e-13
4.58127e-13
-1.27216e-13
-1.84245e-12
-4.45878e-12
-5.84074e-12
-1.10101e-12
1.59828e-11
4.67118e-11
7.53073e-11
5.55736e-11
-8.82457e-11
-4.19758e-10
-8.8162e-10
-1.12584e-09
-3.73144e-10
2.47715e-09
8.14621e-09
1.5381e-08
1.85811e-08
5.77087e-09
-4.03638e-08
-1.34006e-07
-2.65608e-07
-3.67733e-07
-2.75499e-07
2.9259e-07
1.68354e-06
4.11621e-06
7.26908e-06
9.6153e-06
7.59037e-06
-5.09623e-06
-3.73536e-05
-9.87302e-05
-0.000194065
-0.000313
-0.000412663
-0.000392462
-6.12378e-05
0.000900917
0.00298135
0.0068666
0.0134578
0.0238593
0.0393326
0.0612091
0.090764
0.12906
0.176779
0.23406
0.300375
0.374473
0.454398
0.537598
0.621122
0.701878
0.776919
0.843728
0.900445
0.946024
0.980282
1.00384
1.01801
1.02452
1.02534
1.02243
1.01754
1.01207
1.007
1.00294
1.0001
0.99845
0.99778
0.997801
0.998219
0.998791
0.999343
0.999777
1.00006
1.0002
1.00023
1.0002
1.00014
1.00007
1.00002
0.999991
0.999978
0.999976
0.999981
0.999989
0.999995
1
1
1
1
1
1
1
1
1
1
1
1
1
1
1
1
1
1
1
1
1
1
1
1
1
1
1
1
1
1
1
1
1
1
1
0.999998
0.999996
0.999993
0.99999
0.999992
1.00001
1.00004
1.0001
1.00019
1.00031
1.00041
1.00039
1.00006
0.999099
0.997019
0.993133
0.986542
0.976141
0.960667
0.938791
0.909236
0.87094
0.823221
0.76594
0.699625
0.625527
0.545602
0.462402
0.378878
0.298122
0.223081
0.156272
0.0995554
0.0539763
0.0197184
-0.00384496
-0.0180065
-0.0245157
-0.0253403
-0.0224336
-0.0175412
-0.0120657
-0.0070018
-0.00293576
-9.82558e-05
0.00155
0.00221963
0.00219935
0.00178097
0.00120927
0.000657301
0.000223099
-5.88904e-05
-0.000198807
-0.000231157
-0.000197726
-0.000135859
-7.24433e-05
-2.25991e-05
8.50864e-06
2.24204e-05
2.40127e-05
1.88333e-05
1.146e-05
4.83119e-06
2.82658e-07
-2.03254e-06
-2.61891e-06
-2.19005e-06
-1.37785e-06
-6.02405e-07
-6.18522e-08
2.12043e-07
2.79415e-07
2.28804e-07
1.37223e-07
5.3618e-08
-1.10385e-09
-2.57623e-08
-2.89608e-08
-2.13202e-08
-1.11362e-08
-3.02878e-09
1.54675e-09
3.06119e-09
2.71849e-09
1.66659e-09
6.52155e-10
-5.80469e-12
-2.86171e-10
-3.07559e-10
-2.10166e-10
-9.57076e-11
-1.39772e-11
2.51232e-11
3.24053e-11
2.37621e-11
1.15991e-11
2.38978e-12
-2.23796e-12
-3.28499e-12
-2.48379e-12
-1.23139e-12
-2.66942e-13
2.17461e-13
3.25819e-13
2.4317e-13
1.16757e-13
2.20779e-14
-2.32716e-14
-3.16084e-14
-2.22942e-14
-9.85604e-15
-1.17676e-15
2.58428e-15
2.95619e-15
1.89281e-15
7.21255e-16
-1.1027e-17
-2.77602e-16
-2.60566e-16
-1.45557e-16
-4.24861e-17
1.2913e-17
2.75098e-17
2.10703e-17
9.75285e-18
1.51924e-18
-2.06719e-18
-2.44311e-18
-1.51286e-18
-5.24778e-19
5.14026e-20
2.29614e-19
1.89875e-19
9.17664e-20
1.70426e-20
-1.62171e-20
-2.02839e-20
-1.25096e-20
-4.20589e-21
5.09836e-22
1.86208e-21
1.46126e-21
6.5529e-22
8.49732e-23
-1.43118e-22
-1.51736e-22
-8.37463e-23
-2.22851e-23
8.21414e-24
1.42402e-23
9.4507e-24
3.42101e-24
-1.43632e-25
-1.21473e-24
-9.73545e-25
-4.28757e-25
-4.96256e-26
9.38334e-26
9.3306e-26
4.7701e-26
1.01891e-26
-6.44992e-27
-8.42793e-27
-4.88386e-27
-1.38115e-27
3.75615e-28
7.24672e-28
4.69461e-28
1.57456e-28
-1.56465e-29
-5.98398e-29
-4.29186e-29
-1.61706e-29
-1.35735e-32
4.78584e-30
3.76615e-30
1.54185e-30
9.91124e-32
-3.73951e-31
-3.19414e-31
-1.38725e-31
-1.46123e-32
2.88008e-32
2.63205e-32
1.18921e-32
1.55481e-33
-2.20494e-33
-2.11543e-33
-9.77127e-34
-1.4065e-34
1.68964e-34
1.66258e-34
7.72264e-35
1.13288e-35
-1.30121e-35
-1.27947e-35
-5.88089e-36
-8.22051e-37
1.00735e-36
9.64294e-37
4.31567e-37
5.31939e-38
-7.81319e-38
-7.11077e-38
-3.04786e-38
-2.93903e-39
6.03535e-39
5.12071e-39
2.06532e-39
1.18954e-40
-4.60998e-40
-3.5914e-40
-1.33606e-40
-4.48533e-43
3.45714e-41
2.44451e-41
8.18401e-42
-5.97113e-43
-2.52889e-42
-1.60782e-42
-4.68274e-43
8.67649e-44
1.79414e-43
1.01643e-43
2.44118e-44
-8.95318e-45
-1.22814e-44
-6.13872e-45
-1.07419e-45
8.04305e-46
)
;

boundaryField
{
    sides
    {
        type            zeroGradient;
    }
    empty
    {
        type            empty;
    }
}


// ************************************************************************* //
