/*--------------------------------*- C++ -*----------------------------------*\
| =========                 |                                                 |
| \\      /  F ield         | OpenFOAM: The Open Source CFD Toolbox           |
|  \\    /   O peration     | Version:  2312                                  |
|   \\  /    A nd           | Website:  www.openfoam.com                      |
|    \\/     M anipulation  |                                                 |
\*---------------------------------------------------------------------------*/
FoamFile
{
    version     2.0;
    format      ascii;
    arch        "LSB;label=32;scalar=64";
    class       volScalarField;
    location    "0.8";
    object      T;
}
// * * * * * * * * * * * * * * * * * * * * * * * * * * * * * * * * * * * * * //

dimensions      [0 0 0 1 0 0 0];

internalField   nonuniform List<scalar> 
1000
(
0
0
0
0
0
0
0
0
0
0
0
0
0
0
0
0
0
0
0
0
0
0
0
0
0
0
0
0
0
0
0
0
0
0
0
0
0
0
0
0
0
0
0
0
0
0
0
0
0
0
0
0
0
0
0
0
0
0
0
0
0
0
0
0
0
0
0
0
0
0
0
0
0
0
0
0
0
0
0
0
0
0
0
0
0
0
0
0
0
0
0
0
0
0
0
0
0
0
0
0
0
0
0
0
0
0
0
0
0
0
0
0
0
0
0
0
0
0
0
0
0
0
0
0
0
0
0
0
0
0
0
0
0
0
0
0
0
0
0
0
0
0
0
0
0
0
0
0
0
0
0
0
0
0
0
0
0
0
0
0
0
0
0
0
0
0
0
0
0
0
0
0
0
0
0
0
0
0
0
0
0
0
0
0
0
0
0
0
0
0
0
0
0
0
0
0
0
0
0
0
0
0
0
0
0
0
0
0
0
0
0
0
0
0
0
0
0
0
0
0
0
0
0
0
0
0
0
0
0
0
0
0
0
0
0
0
0
0
0
0
0
0
0
0
0
0
0
0
0
0
0
0
0
0
0
0
0
0
0
0
0
0
0
0
0
0
0
0
0
0
0
0
0
0
0
0
0
0
0
0
0
0
0
0
0
0
0
0
0
0
0
0
0
0
0
0
0
0
0
0
0
0
0
0
0
0
0
0
0
0
0
0
0
0
0
0
0
0
0
0
0
0
0
0
0
0
0
0
0
0
0
0
0
0
0
0
0
0
0
0
0
0
0
0
0
0
0
0
0
0
0
0
0
0
0
0
0
0
0
0
0
0
0
0
0
0
0
0
0
0
0
0
0
0
0
0
0
0
0
0
0
0
0
0
0
0
0
0
0
0
0
0
0
0
0
0
0
0
0
0
0
0
0
0
0
0
0
0
0
0
0
0
0
0
0
0
0
0
0
0
0
0
0
0
0
0
0
0
0
0
0
0
0
0
0
0
0
0
0
0
0
0
0
0
0
0
0
0
0
0
1.43097e-23
7.42805e-22
1.93095e-20
3.35169e-19
4.37027e-18
4.56603e-17
3.9819e-16
2.98127e-15
1.95629e-14
1.14296e-13
6.01998e-13
2.88735e-12
1.27161e-11
5.17836e-11
1.96156e-10
6.94721e-10
2.31081e-09
7.24722e-09
2.15055e-08
6.0569e-08
1.62365e-07
4.15313e-07
1.01601e-06
2.38218e-06
5.36344e-06
1.16165e-05
2.42429e-05
4.88239e-05
9.5025e-05
0.000178969
0.000326584
0.000578091
0.000993722
0.00166056
0.00270023
0.00427674
0.00660368
0.00994945
0.0146391
0.0210516
0.0296109
0.0407702
0.0549898
0.0727087
0.0943119
0.120096
0.150237
0.184762
0.223531
0.266227
0.312362
0.361293
0.412251
0.464381
0.516783
0.568561
0.618868
0.666945
0.71215
0.753985
0.792098
0.826293
0.856511
0.882823
0.9054
0.924498
0.940426
0.953527
0.964157
0.972667
0.979389
0.984631
0.988666
0.991734
0.994037
0.995745
0.996996
0.997902
0.99855
0.999008
0.999329
0.99955
0.999702
0.999804
0.999873
0.999918
0.999948
0.999967
0.999979
0.999987
0.999992
0.999995
0.999997
0.999998
0.999999
0.999999
1
1
1
1
1
1
1
1
1
1
1
1
1
1
1
1
1
1
1
1
1
1
1
1
1
1
0.999999
0.999998
0.999995
0.999988
0.999976
0.999951
0.999905
0.999821
0.999673
0.999422
0.999006
0.998339
0.9973
0.995723
0.993396
0.990051
0.985361
0.978948
0.970389
0.95923
0.94501
0.927291
0.905688
0.879904
0.849763
0.815238
0.776469
0.733773
0.687638
0.638707
0.587749
0.535619
0.483217
0.431439
0.381132
0.333055
0.28785
0.246015
0.207902
0.173707
0.143489
0.117177
0.0945998
0.0755019
0.0595739
0.0464727
0.0358429
0.0273334
0.0206109
0.0153689
0.0113335
0.00826601
0.00596312
0.00425535
0.00300414
0.00209831
0.00145019
0.000991801
0.000671295
0.000449711
0.000298214
0.000195766
0.000127235
8.18799e-05
5.21785e-05
3.293e-05
2.05835e-05
1.27443e-05
7.81674e-06
4.74991e-06
2.85981e-06
1.70616e-06
1.00873e-06
5.91071e-07
3.43284e-07
1.97631e-07
1.12793e-07
6.38218e-08
3.5806e-08
1.99194e-08
1.09893e-08
6.01266e-09
3.2629e-09
1.75637e-09
9.37858e-10
4.9682e-10
2.61117e-10
1.36169e-10
7.04623e-11
3.61832e-11
1.84398e-11
9.3269e-12
4.68251e-12
2.33351e-12
1.15441e-12
5.6697e-13
2.76462e-13
1.33849e-13
6.43466e-14
3.07182e-14
1.4563e-14
6.85672e-15
3.20642e-15
1.48932e-15
6.87134e-16
3.14926e-16
1.43388e-16
6.48606e-17
2.91496e-17
1.30165e-17
5.77544e-18
2.54643e-18
1.11572e-18
4.85824e-19
2.10244e-19
9.04295e-20
3.86599e-20
1.64284e-20
6.93965e-21
2.9141e-21
1.21652e-21
5.04891e-22
2.08335e-22
8.54738e-23
3.4868e-23
1.41438e-23
5.7051e-24
2.28846e-24
9.12893e-25
3.6217e-25
1.42902e-25
5.60813e-26
2.18909e-26
8.49956e-27
3.2827e-27
1.2612e-27
4.82028e-28
1.83279e-28
6.93298e-29
2.60922e-29
9.77014e-30
3.64003e-30
1.34939e-30
4.97757e-31
1.82707e-31
6.67371e-32
2.42588e-32
8.77552e-33
3.15933e-33
1.132e-33
4.03688e-34
1.43286e-34
5.06213e-35
1.78012e-35
6.23109e-36
2.17116e-36
7.53086e-37
2.60037e-37
8.93877e-38
3.05902e-38
1.04223e-38
3.53535e-39
1.19399e-39
4.01498e-40
1.34428e-40
4.48157e-41
1.48771e-41
4.91774e-42
1.61876e-42
5.30619e-43
1.73211e-43
5.6308e-44
1.82297e-44
5.87781e-45
1.8875e-45
6.03678e-46
1.92301e-46
6.10131e-47
1.92816e-47
6.06949e-48
1.90309e-48
5.94392e-49
1.84929e-49
5.73144e-50
1.76954e-50
5.44257e-51
1.66764e-51
5.0906e-52
1.54813e-52
4.69065e-53
1.41596e-53
4.25862e-54
1.27614e-54
3.81022e-55
1.13352e-55
3.36006e-56
9.92451e-57
2.92097e-57
8.56657e-58
2.50357e-58
7.29106e-59
2.11597e-59
6.11964e-60
1.76378e-60
5.06614e-61
1.45021e-61
4.13723e-62
1.17632e-62
3.33337e-63
9.41443e-64
2.6501e-64
7.43528e-65
2.07925e-65
5.79556e-66
1.61017e-66
4.45909e-67
1.2309e-67
3.38694e-68
9.28989e-69
2.54002e-69
6.923e-70
1.881e-70
5.09483e-71
1.37569e-71
3.70314e-72
9.93766e-73
2.6587e-73
7.09141e-74
1.88573e-74
4.99941e-75
1.32146e-75
3.48252e-76
9.15046e-77
2.39722e-77
6.26175e-78
1.63084e-78
4.23508e-79
1.09661e-79
2.83133e-80
7.2892e-81
1.87123e-81
4.79005e-82
1.22271e-82
3.11229e-83
7.89987e-84
1.99962e-84
5.04738e-85
1.27053e-85
3.18937e-86
7.98429e-87
1.99334e-87
4.96304e-88
1.23236e-88
3.05184e-89
7.53737e-90
1.85661e-90
4.56107e-91
1.11754e-91
2.73099e-92
6.65638e-93
1.61816e-93
3.92355e-94
9.48883e-95
2.28891e-95
5.50721e-96
1.32168e-96
3.16386e-97
7.55457e-98
1.79932e-98
4.27483e-99
1.01308e-99
2.39492e-100
5.64756e-101
1.3285e-101
3.11743e-102
7.29742e-103
1.70406e-103
3.96963e-104
9.22499e-105
2.13864e-105
4.9462e-106
1.14122e-106
2.62687e-107
6.03227e-108
1.38198e-108
3.15867e-109
7.20265e-110
1.6386e-110
3.71918e-111
8.42209e-112
1.90281e-112
4.28924e-113
9.64661e-114
2.16463e-114
4.84633e-115
1.08259e-115
2.41293e-116
5.36604e-117
1.19069e-117
2.63622e-118
5.82381e-119
1.28375e-119
2.82359e-120
6.19693e-121
1.35709e-121
2.96554e-122
6.46641e-123
1.40699e-123
3.05486e-124
6.6186e-125
1.43094e-125
3.08716e-126
6.64635e-127
1.4279e-127
3.0613e-128
6.54952e-129
1.39835e-129
2.97936e-130
6.3349e-131
1.34421e-131
2.84647e-132
6.0154e-133
1.26865e-133
2.67021e-134
5.60886e-135
1.1758e-135
2.45996e-136
5.1364e-137
1.07036e-137
2.2261e-138
4.62067e-139
9.57228e-140
1.97915e-140
4.08411e-141
8.41153e-142
1.72908e-142
3.54748e-143
7.26429e-144
1.4847e-144
3.0287e-145
6.16668e-146
1.25322e-146
2.54206e-147
5.14671e-148
1.04007e-148
2.09792e-149
4.22385e-150
8.48839e-151
1.70272e-151
3.40929e-152
6.81382e-153
1.35933e-153
2.7069e-154
5.38064e-155
1.06761e-155
2.11452e-156
4.18053e-157
8.25045e-158
1.62537e-158
3.19636e-159
6.27471e-160
1.22961e-160
2.40535e-161
4.69712e-162
9.15648e-163
1.78185e-163
3.46149e-164
6.71285e-165
1.29958e-165
2.51164e-166
4.84586e-167
9.33351e-168
1.79466e-168
3.44499e-169
6.60178e-170
1.26301e-170
2.41226e-171
4.59959e-172
8.75573e-173
1.66397e-173
3.15707e-174
5.98009e-175
1.13089e-175
2.13512e-176
4.02454e-177
7.57366e-178
1.42296e-178
2.66919e-179
4.99883e-180
9.34676e-181
1.74486e-181
3.25214e-182
6.05185e-183
1.1244e-183
2.08578e-184
3.86307e-185
7.14361e-186
1.31894e-186
2.4314e-187
4.4752e-188
8.22429e-189
1.50909e-189
2.7648e-190
5.05763e-191
9.23777e-192
1.68472e-192
3.0678e-193
5.57789e-194
1.01265e-194
1.83567e-195
3.32261e-196
6.00503e-197
1.08369e-197
1.95276e-198
3.51359e-199
6.31266e-200
1.13249e-200
2.02871e-201
3.62887e-202
6.4817e-203
1.15605e-203
2.05889e-204
3.66154e-205
6.50234e-206
1.15306e-206
2.0418e-207
3.61038e-208
6.37495e-209
)
;

boundaryField
{
    sides
    {
        type            zeroGradient;
    }
    empty
    {
        type            empty;
    }
}


// ************************************************************************* //
