/*--------------------------------*- C++ -*----------------------------------*\
| =========                 |                                                 |
| \\      /  F ield         | OpenFOAM: The Open Source CFD Toolbox           |
|  \\    /   O peration     | Version:  2312                                  |
|   \\  /    A nd           | Website:  www.openfoam.com                      |
|    \\/     M anipulation  |                                                 |
\*---------------------------------------------------------------------------*/
FoamFile
{
    version     2.0;
    format      ascii;
    arch        "LSB;label=32;scalar=64";
    class       volScalarField;
    location    "4.9";
    object      T;
}
// * * * * * * * * * * * * * * * * * * * * * * * * * * * * * * * * * * * * * //

dimensions      [0 0 0 1 0 0 0];

internalField   nonuniform List<scalar> 
1000
(
0
0
0
0
0
0
0
0
0
0
0
0
0
0
0
0
0
0
0
0
0
0
0
0
0
0
0
0
0
0
0
0
0
0
0
0
0
0
0
0
0
0
0
0
0
0
0
0
0
0
0
0
0
0
0
0
0
0
0
0
0
0
0
0
0
0
0
0
0
0
0
0
0
0
0
0
0
0
0
0
0
0
0
0
0
0
0
0
0
0
0
0
0
0
0
0
0
0
0
0
0
0
0
0
0
0
0
0
0
0
0
0
0
0
0
0
0
0
0
0
0
0
0
0
0
0
0
0
0
0
0
0
0
0
0
0
0
0
0
0
0
0
0
0
0
0
0
0
0
0
0
0
0
0
0
0
0
0
0
0
0
0
0
0
0
0
0
0
0
0
0
0
0
0
0
0
0
0
0
0
0
0
0
0
0
0
0
0
0
0
0
0
0
0
0
0
0
0
0
0
0
0
0
0
0
0
0
0
0
0
0
0
0
0
0
0
0
0
0
0
0
0
0
0
0
0
0
0
0
0
0
0
0
0
0
0
0
0
0
0
0
0
0
0
0
0
0
0
0
0
0
0
0
0
0
0
0
0
0
0
0
0
0
0
0
0
0
0
0
0
0
0
0
0
0
0
0
0
0
0
0
0
0
0
0
0
0
0
0
0
0
0
0
0
0
0
0
0
0
0
0
0
0
0
0
0
0
0
0
0
0
0
0
0
0
0
0
0
0
0
0
0
0
0
0
0
0
0
0
0
0
0
0
0
0
0
0
0
0
0
0
0
0
0
0
0
0
0
0
0
0
0
0
0
0
0
0
0
0
0
0
0
0
0
0
0
0
0
0
0
0
0
0
0
0
0
0
0
0
0
0
0
0
0
0
0
0
0
0
0
0
0
0
0
0
0
0
0
0
0
0
0
0
0
0
0
0
0
0
0
0
0
0
0
0
0
0
0
0
0
0
0
0
0
0
0
0
0
0
0
0
0
0
0
0
0
0
0
0
0
0
0
0
0
0
0
0
0
0
0
1.19741e-140
3.74572e-138
5.8599e-136
6.11288e-134
4.78361e-132
2.99535e-130
1.56333e-128
6.99519e-127
2.73936e-125
9.53759e-124
2.98926e-122
8.51899e-121
2.22596e-119
5.37001e-118
1.20321e-116
2.51674e-115
4.93627e-114
9.11428e-113
1.5897e-111
2.62736e-110
4.1261e-109
6.17253e-108
8.8161e-107
1.20469e-105
1.57793e-104
1.98454e-103
2.40046e-102
2.79659e-101
3.14241e-100
3.40996e-99
3.57771e-98
3.6334e-97
3.57541e-96
3.41246e-95
3.16182e-94
2.84649e-93
2.49196e-92
2.12308e-91
1.76158e-90
1.42446e-89
1.1233e-88
8.64389e-88
6.49458e-87
4.76723e-86
3.42051e-85
2.4002e-84
1.64798e-83
1.10767e-82
7.29152e-82
4.70288e-81
2.97323e-80
1.84326e-79
1.12099e-78
6.69023e-78
3.91972e-77
2.25524e-76
1.27467e-75
7.0796e-75
3.8651e-74
2.07482e-73
1.09546e-72
5.69018e-72
2.90862e-71
1.4635e-70
7.25022e-70
3.53729e-69
1.70002e-68
8.05003e-68
3.75666e-67
1.72806e-66
7.83719e-66
3.50506e-65
1.54614e-64
6.72833e-64
2.88901e-63
1.22421e-62
5.1204e-62
2.11431e-61
8.6203e-61
3.47086e-60
1.38033e-59
5.42287e-59
2.10494e-58
8.07381e-58
3.06063e-57
1.14683e-56
4.24814e-56
1.55587e-55
5.6348e-55
2.01823e-54
7.14997e-54
2.50572e-53
8.6878e-53
2.98048e-52
1.01184e-51
3.39965e-51
1.13059e-50
3.72194e-50
1.21304e-49
3.91439e-49
1.25079e-48
3.95801e-48
1.24047e-47
3.85081e-47
1.18418e-46
3.60763e-46
1.08894e-45
3.25689e-45
9.6529e-45
2.83533e-44
8.25429e-44
2.38188e-43
6.81335e-43
1.93213e-42
5.43225e-42
1.51435e-41
4.18609e-41
1.14751e-40
3.11966e-40
8.41175e-40
2.24971e-39
5.96842e-39
1.57077e-38
4.10127e-38
1.06243e-37
2.73082e-37
6.96498e-37
1.76283e-36
4.42782e-36
1.10379e-35
2.73103e-35
6.70708e-35
1.63507e-34
3.95691e-34
9.50649e-34
2.26753e-33
5.37002e-33
1.26274e-32
2.94844e-32
6.83646e-32
1.57418e-31
3.59984e-31
8.17599e-31
1.84437e-30
4.13262e-30
9.19806e-30
2.03367e-29
4.4668e-29
9.74691e-29
2.11306e-28
4.55143e-28
9.74087e-28
2.07147e-27
4.37736e-27
9.19207e-27
1.91824e-26
3.97831e-26
8.20008e-26
1.67988e-25
3.42058e-25
6.92304e-25
1.3928e-24
2.78541e-24
5.53754e-24
1.09443e-23
2.15041e-23
4.20077e-23
8.15885e-23
1.57557e-22
3.0253e-22
5.77614e-22
1.09663e-21
2.0704e-21
3.88713e-21
7.25778e-21
1.34769e-20
2.48889e-20
4.57152e-20
8.35164e-20
1.51758e-19
2.74294e-19
4.93146e-19
8.81955e-19
1.56906e-18
2.77696e-18
4.88934e-18
8.56431e-18
1.49249e-17
2.58771e-17
4.46398e-17
7.66198e-17
1.30853e-16
2.22365e-16
3.76008e-16
6.32686e-16
1.05938e-15
1.76523e-15
2.92717e-15
4.83059e-15
7.93364e-15
1.2968e-14
2.10969e-14
3.41597e-14
5.5052e-14
8.83094e-14
1.41002e-13
2.24099e-13
3.54535e-13
5.58337e-13
8.75306e-13
1.36603e-12
2.12231e-12
3.28258e-12
5.05463e-12
7.74891e-12
1.18271e-11
1.79728e-11
2.7193e-11
4.09654e-11
6.14472e-11
9.17748e-11
1.36486e-10
2.0212e-10
2.98053e-10
4.37673e-10
6.40013e-10
9.32006e-10
1.3516e-09
1.95203e-09
2.80765e-09
4.02186e-09
5.7378e-09
8.15283e-09
1.15378e-08
1.6263e-08
2.28322e-08
3.19281e-08
4.44719e-08
6.17011e-08
8.52715e-08
1.17389e-07
1.60979e-07
2.19908e-07
2.99261e-07
4.05698e-07
5.47909e-07
7.37182e-07
9.8812e-07
1.31954e-06
1.75557e-06
2.32706e-06
3.07324e-06
4.04385e-06
5.30162e-06
6.92543e-06
9.01398e-06
1.16903e-05
1.51071e-05
1.94533e-05
2.49613e-05
3.19162e-05
4.06661e-05
5.16345e-05
6.53342e-05
8.23838e-05
0.000103527
0.000129651
0.000161818
0.000201283
0.000249532
0.000308312
0.000379674
0.000466006
0.000570088
0.000695134
0.000844851
0.00102349
0.00123591
0.00148764
0.00178494
0.00213488
0.00254539
0.00302534
0.00358459
0.00423408
0.00498588
0.00585322
0.00685056
0.00799364
0.00929945
0.0107863
0.0124739
0.0143829
0.0165357
0.0189555
0.0216667
0.0246947
0.0280658
0.0318071
0.0359461
0.0405106
0.0455286
0.0510281
0.0570364
0.0635804
0.0706857
0.0783767
0.0866763
0.0956053
0.105182
0.115422
0.126339
0.137942
0.150238
0.163227
0.17691
0.191279
0.206325
0.222033
0.238384
0.255354
0.272915
0.291035
0.309677
0.328801
0.348363
0.368314
0.388605
0.409182
0.42999
0.450972
0.472069
0.493222
0.514372
0.535458
0.556424
0.577211
0.597763
0.618027
0.637953
0.657491
0.676596
0.695228
0.713348
0.730923
0.747923
0.764321
0.780098
0.795235
0.80972
0.823544
0.836701
0.849192
0.861017
0.872183
0.882699
0.892577
0.90183
0.910476
0.918533
0.92602
0.932961
0.939377
0.945292
0.95073
0.955715
0.960272
0.964424
0.968196
0.971611
0.97469
0.977455
0.979926
0.982123
0.984061
0.985759
0.987229
0.988486
0.989539
0.990398
0.99107
0.991561
0.991874
0.992011
0.991971
0.991751
0.991347
0.990753
0.989959
0.988956
0.98773
0.986267
0.984551
0.982564
0.980285
0.977695
0.974769
0.971485
0.967817
0.963741
0.959229
0.954255
0.948793
0.942815
0.936297
0.929214
0.921541
0.913256
0.904339
0.894773
0.884541
0.873631
0.862033
0.849743
0.836757
0.823077
0.808711
0.793667
0.77796
0.761611
0.744642
0.727082
0.708962
0.690321
0.671197
0.651636
0.631685
0.611394
0.590817
0.570009
0.549028
0.527931
0.506778
0.485628
0.464541
0.443576
0.422789
0.402237
0.381972
0.362047
0.342509
0.323403
0.304772
0.286651
0.269076
0.252077
0.235678
0.219901
0.204764
0.190278
0.176454
0.163296
0.150804
0.138978
0.12781
0.117292
0.107411
0.0981547
0.0895046
0.0814425
0.0739478
0.0669985
0.0605715
0.0546429
0.0491879
0.0441816
0.0395986
0.0354139
0.0316025
0.0281399
0.025002
0.0221655
0.0196078
0.0173074
0.0152434
0.0133962
0.0117471
0.0102784
0.00897369
0.00781741
0.00679522
0.00589375
0.00510069
0.00440469
0.00379534
0.00326314
0.00279944
0.00239639
0.00204689
0.00174456
0.00148364
0.001259
0.00106605
0.000900712
0.000759365
0.000638811
0.000536233
0.000449153
0.000375401
0.000313083
0.000260547
0.00021636
0.000179281
0.000148238
0.000122307
0.000100696
8.27268e-05
6.78191e-05
5.54794e-05
4.52883e-05
3.68908e-05
2.99866e-05
2.4323e-05
1.96873e-05
1.59016e-05
1.28167e-05
1.03086e-05
8.27391e-06
6.62689e-06
5.29663e-06
4.22456e-06
3.36246e-06
2.67071e-06
2.11687e-06
1.67441e-06
1.32168e-06
1.04111e-06
8.18403e-07
6.42013e-07
5.02606e-07
3.92663e-07
3.06141e-07
2.38197e-07
1.84954e-07
1.4332e-07
1.10832e-07
8.55353e-08
6.58786e-08
5.06367e-08
3.88428e-08
2.97359e-08
2.27184e-08
1.73223e-08
1.31814e-08
1.00104e-08
7.58708e-09
5.73897e-09
4.33243e-09
3.26413e-09
2.45439e-09
)
;

boundaryField
{
    sides
    {
        type            zeroGradient;
    }
    empty
    {
        type            empty;
    }
}


// ************************************************************************* //
