/*--------------------------------*- C++ -*----------------------------------*\
| =========                 |                                                 |
| \\      /  F ield         | OpenFOAM: The Open Source CFD Toolbox           |
|  \\    /   O peration     | Version:  2312                                  |
|   \\  /    A nd           | Website:  www.openfoam.com                      |
|    \\/     M anipulation  |                                                 |
\*---------------------------------------------------------------------------*/
FoamFile
{
    version     2.0;
    format      ascii;
    arch        "LSB;label=32;scalar=64";
    class       volScalarField;
    location    "1.9";
    object      T;
}
// * * * * * * * * * * * * * * * * * * * * * * * * * * * * * * * * * * * * * //

dimensions      [0 0 0 1 0 0 0];

internalField   nonuniform List<scalar> 
1000
(
1.11504e-86
-3.1986e-86
9.72626e-86
-2.96814e-85
9.03538e-85
-2.74549e-84
8.32692e-84
-2.5208e-83
7.6169e-83
-2.29722e-82
6.91528e-82
-2.07776e-81
6.23101e-81
-1.86507e-80
5.5719e-80
-1.66143e-79
4.94453e-79
-1.4687e-78
4.35414e-78
-1.28834e-77
3.80465e-77
-1.12138e-76
3.29867e-76
-9.68445e-76
2.83763e-75
-8.2981e-75
2.42182e-74
-7.05408e-74
2.05057e-73
-5.94893e-73
1.72239e-72
-4.97679e-72
1.43513e-71
-4.13001e-71
1.18612e-70
-3.39953e-70
9.72344e-70
-2.77542e-69
7.90575e-69
-2.24729e-68
6.37489e-68
-1.80461e-67
5.09782e-67
-1.43706e-66
4.04253e-66
-1.13478e-65
3.17873e-65
-8.88526e-65
2.47833e-64
-6.89794e-64
1.91578e-63
-5.30928e-63
1.4682e-62
-4.05127e-62
1.11545e-61
-3.0645e-61
8.4007e-61
-2.29781e-60
6.2712e-60
-1.70775e-59
4.64012e-59
-1.25795e-58
3.40269e-58
-9.18337e-58
2.47286e-57
-6.64371e-57
1.78087e-56
-4.76277e-56
1.27084e-55
-3.38313e-55
8.98551e-55
-2.38099e-54
6.29446e-54
-1.66013e-53
4.36824e-53
-1.14669e-52
3.00299e-52
-7.84565e-52
2.04487e-51
-5.31696e-51
1.37916e-50
-3.56873e-50
9.21212e-50
-2.37217e-49
6.09355e-49
-1.56144e-48
3.99126e-48
-1.0177e-47
2.58847e-47
-6.56726e-47
1.66201e-46
-4.19556e-46
1.05644e-45
-2.65336e-45
6.64718e-45
-1.66098e-44
4.13974e-44
-1.0291e-43
2.5516e-43
-6.31006e-43
1.55638e-42
-3.82871e-42
9.39379e-42
-2.29866e-41
5.6098e-41
-1.36538e-40
3.3143e-40
-8.02329e-40
1.93701e-39
-4.66361e-39
1.11975e-38
-2.68114e-38
6.40198e-38
-1.5244e-37
3.61965e-37
-8.57063e-37
2.02363e-36
-4.76446e-36
1.11855e-35
-2.6185e-35
6.11217e-35
-1.42259e-34
3.30139e-34
-7.6391e-34
1.76242e-33
-4.05405e-33
9.29776e-33
-2.12602e-32
4.84675e-32
-1.10159e-31
2.49615e-31
-5.6389e-31
1.26994e-30
-2.85121e-30
6.38154e-30
-1.42386e-29
3.16695e-29
-7.02175e-29
1.55192e-28
-3.41905e-28
7.50835e-28
-1.64354e-27
3.58595e-27
-7.79842e-27
1.69036e-26
-3.65188e-26
7.86332e-26
-1.68749e-25
3.6092e-25
-7.69321e-25
1.63427e-24
-3.45976e-24
7.29906e-24
-1.53454e-23
3.21491e-23
-6.71163e-23
1.3962e-22
-2.89412e-22
5.97756e-22
-1.23015e-21
2.5224e-21
-5.15317e-21
1.04889e-20
-2.12702e-20
4.2972e-20
-8.64892e-20
1.73415e-19
-3.46379e-19
6.89193e-19
-1.36598e-18
2.69679e-18
-5.3032e-18
1.03873e-17
-2.02643e-17
3.93738e-17
-7.61932e-17
1.46841e-16
-2.81826e-16
5.38652e-16
-1.0252e-15
1.94301e-15
-3.66677e-15
6.89005e-15
-1.28907e-14
2.40118e-14
-4.45302e-14
8.22143e-14
-1.51108e-13
2.76473e-13
-5.03532e-13
9.12837e-13
-1.64714e-12
2.95814e-12
-5.28736e-12
9.40523e-12
-1.66491e-11
2.93277e-11
-5.14059e-11
8.9654e-11
-1.5557e-10
2.68571e-10
-4.61257e-10
7.88047e-10
-1.33925e-09
2.26382e-09
-3.806e-09
6.36372e-09
-1.05814e-08
1.74956e-08
-2.87635e-08
4.70163e-08
-7.64039e-08
1.23426e-07
-1.98194e-07
3.16321e-07
-5.0174e-07
7.90871e-07
-1.2387e-06
1.92761e-06
-2.98001e-06
4.57632e-06
-6.98019e-06
1.05735e-05
-1.59045e-05
2.37527e-05
-3.52162e-05
5.18257e-05
-7.56936e-05
0.000109702
-0.000157741
0.000224994
-0.000318284
0.000446469
-0.000620885
0.000855814
-0.00116894
0.00158177
-0.00211987
0.00281298
-0.00369468
0.00480162
-0.00617217
0.00784413
-0.00985167
0.0122212
-0.0149659
0.0180803
-0.0215326
0.025259
-0.0291567
0.0330798
-0.0368376
0.0401972
-0.0428913
0.0446328
-0.0451359
0.044144
-0.041463
0.036997
-0.0307824
0.0230159
-0.0140691
0.00448561
0.00504538
-0.0137414
0.0208032
-0.0255112
0.0273299
-0.0260072
0.0216506
-0.014761
0.00621123
0.00283973
-0.0110939
0.0173078
-0.0205034
0.020161
-0.0163504
0.00976521
-0.00163857
-0.00646135
0.0129271
-0.0164463
0.0163029
-0.01257
0.00613593
0.00146477
-0.00839213
0.0129458
-0.0140063
0.0113531
-0.00575829
-0.00119014
0.00751038
-0.0113889
0.0117243
-0.00848341
0.00274098
0.0036327
-0.00855967
0.0104391
-0.00870051
0.00402252
0.00188171
-0.0068622
0.00911381
-0.00785747
0.00365325
0.00179776
-0.00631096
0.00809203
-0.00647729
0.00222305
0.0028008
-0.00640734
0.00704962
-0.00451602
3.60912e-05
0.00427622
-0.00640649
0.00539781
-0.00181773
-0.00251341
0.0054235
-0.00548426
0.00274534
0.00128752
-0.00444252
0.00504051
-0.00280355
-0.000994162
0.00423919
-0.00517637
0.00341797
-0.0001738
-0.0024526
0.00270565
-0.000221051
-0.00377125
0.00722919
-0.00859802
0.00781427
-0.00636324
0.00633137
-0.00905337
0.0142421
-0.020192
0.0249338
-0.02756
0.0287993
-0.0304177
0.0338531
-0.0390492
0.0443444
-0.0475199
0.0472576
-0.0439363
0.0391714
-0.0344572
0.0299715
-0.024504
0.0165936
-0.00599127
-0.00573585
0.0159841
-0.022695
0.0254923
-0.0254859
0.0239677
-0.0211681
0.0161961
-0.00824315
-0.00202151
0.0121733
-0.0192489
0.0215183
-0.0193549
0.0145306
-0.00866055
0.00226132
0.00476102
-0.0118116
0.0169712
-0.0179015
0.0136371
-0.00563316
-0.00298257
0.00936247
-0.0124014
0.012555
-0.0105239
0.00639465
-0.000195587
-0.00686726
0.0121512
-0.0130264
0.00889454
-0.00183939
-0.0048111
0.00869567
-0.00941253
0.00770719
-0.00419292
-0.00077851
0.00613079
-0.00959603
0.0089506
-0.0040446
-0.00255483
0.00727268
-0.00808701
0.00553923
-0.00153264
-0.00239434
0.00544181
-0.006755
0.0052469
-0.000830124
-0.00444432
0.00729634
-0.00583307
0.00124447
0.00329941
-0.00535192
0.00464867
-0.00225995
-0.000822737
0.0037676
-0.00520945
0.00372892
0.000386479
-0.00445512
0.00540035
-0.00264008
-0.00142194
0.00385683
-0.00368443
0.00180534
0.00063332
-0.00285157
0.00378956
-0.00230874
-0.00116981
0.00403573
-0.00369824
0.000443659
0.00274971
-0.00338479
0.00166705
0.000585912
-0.00212377
0.00256296
-0.0015289
-0.000906365
0.00308015
-0.00272357
-0.000210078
0.00288672
-0.00271108
0.0002707
0.00180347
-0.00207174
0.00108077
0.000342942
-0.00174272
0.00212843
-0.000525733
-0.00197329
0.00260429
-0.000450936
-0.00200187
0.002085
-0.000261118
-0.00120273
0.00139988
-0.000835701
-0.00028221
0.00159864
-0.00161318
-0.00037251
0.00219806
-0.00138287
-0.00101812
0.00187159
-0.00057123
-0.000769802
0.00101206
-0.000721319
-2.23159e-05
0.00123357
-0.00137244
-0.00046461
0.0019521
-0.000752352
-0.00134955
0.00133085
0.000188749
-0.00083163
0.000581348
-0.000321536
-0.000456723
0.00130674
-0.000338426
-0.00154802
0.00113655
0.0010479
-0.00134637
-0.000264967
0.000810952
-0.000269062
0.000176662
0.000288944
-0.00111915
9.93542e-05
0.00161134
-0.000549789
-0.00151226
0.00071341
0.000940991
-0.000432865
-0.000155274
-0.000191513
-0.000586122
0.000867378
0.0011025
-0.00125612
-0.00129633
0.00113162
0.00112108
-0.000495212
-0.000567749
-0.000394162
-0.000295537
0.00110105
0.00124935
-0.00120905
-0.00189264
0.000582111
0.00175846
0.000437952
-0.000616136
-0.00109033
-0.00116782
0.000646583
0.00253931
0.000878371
-0.00229283
-0.0023037
0.000191805
0.0018844
0.00217066
0.000929571
-0.00214082
-0.00394346
-0.00117948
0.0033659
0.00444108
0.00159337
-0.00230598
-0.00519564
-0.00483998
0.00038548
0.0070187
0.0085095
0.00304574
-0.00516375
-0.0112395
-0.0116605
-0.00396841
0.00977039
0.0211887
0.0217568
0.00937632
-0.0122354
-0.0360637
-0.0512513
-0.0449233
-0.00869183
0.0579706
0.150829
0.263453
0.386214
0.507524
0.618706
0.7158
0.796629
0.859506
0.90552
0.938663
0.9623
0.977698
0.986525
0.991947
0.996038
0.998449
0.998887
0.99887
0.99968
1.00048
1.00014
0.99941
0.999679
1.00051
1.00044
0.999595
0.999434
1.00025
1.00066
0.999946
0.999307
0.999818
1.00065
1.00043
0.999494
0.999354
1.00026
1.00078
1.00008
0.999225
0.999546
1.00059
1.00077
0.99979
0.999077
0.999709
1.00081
1.00078
0.999619
0.998938
0.999728
1.00095
1.00093
0.999625
0.998742
0.999491
1.00097
1.00129
0.999953
0.998566
0.998879
1.00062
1.00176
1.00086
0.998838
0.997991
0.999402
1.00165
1.00229
1.00044
0.997887
0.997291
0.999492
1.00252
1.0034
1.00099
0.997236
0.995561
0.997812
1.00248
1.00574
1.00452
0.999162
0.993406
0.991838
0.996454
1.00493
1.01178
1.01179
1.0034
0.990198
0.979378
0.97819
0.990067
1.01236
1.0366
1.05107
1.0444
1.00891
0.942538
0.848921
0.736049
0.614053
0.492969
0.381022
0.283704
0.203638
0.140999
0.0942312
0.0608151
0.0379176
0.0228455
0.0133031
0.00748673
0.00407136
0.0021386
0.00108441
0.000530326
0.000249817
0.000113153
4.9161e-05
2.04175e-05
8.06645e-06
3.00921e-06
1.04754e-06
3.33229e-07
9.27621e-08
2.00553e-08
1.59145e-09
-1.51091e-09
-1.21212e-09
-6.10922e-10
-2.48747e-10
-8.58915e-11
-2.4806e-11
-5.42177e-12
-4.63327e-13
3.4601e-13
2.65732e-13
1.21906e-13
4.33307e-14
1.22038e-14
2.41611e-15
7.89444e-17
-2.15586e-16
-1.3224e-16
-5.24133e-17
-1.56945e-17
-3.33272e-18
-2.33478e-19
2.11194e-19
1.38732e-19
5.39168e-20
1.5182e-20
2.78722e-21
-5.23246e-24
-2.71468e-22
-1.40622e-22
-4.68275e-23
-1.07684e-23
-1.11169e-24
4.33562e-25
3.1891e-25
1.19172e-25
3.00975e-26
4.1033e-27
-6.70689e-28
-6.84978e-28
-2.70277e-28
-6.95552e-29
-9.71913e-30
1.35788e-30
1.45683e-30
5.62269e-31
1.37898e-31
1.667e-32
-3.73639e-33
-3.05001e-33
-1.06891e-33
-2.32459e-34
-1.7912e-35
1.05202e-35
6.0257e-36
1.8054e-36
3.14792e-37
-3.5764e-39
-2.56478e-38
-1.06528e-38
-2.57264e-39
-2.83268e-40
7.33495e-41
5.15382e-41
1.59352e-41
2.78893e-42
-1.69684e-44
-2.08473e-43
-8.32173e-44
-1.8643e-44
-1.56654e-45
6.90123e-46
3.83397e-46
1.03134e-46
1.39157e-47
-1.66757e-48
-1.59977e-48
-5.04618e-49
-8.57734e-50
1.12626e-51
6.16293e-51
2.25879e-51
4.43762e-52
1.79347e-53
-2.23099e-53
-9.44977e-54
-2.05018e-54
-1.46626e-55
7.73834e-56
3.7513e-56
8.7091e-57
7.83962e-58
-2.63166e-58
-1.42884e-58
-3.4571e-59
-3.45248e-60
8.99544e-61
5.26214e-61
1.29425e-61
1.33112e-62
-3.15239e-63
-1.88192e-63
-4.59136e-64
-4.58095e-65
1.13951e-65
6.54269e-66
1.54529e-66
1.40468e-67
-4.20465e-68
-2.207e-68
-4.92524e-69
-3.74344e-70
1.55182e-70
7.19252e-71
1.47918e-71
8.01371e-73
-5.60828e-73
-2.25093e-73
-4.14875e-74
-9.63543e-76
1.95112e-75
6.71441e-76
1.07037e-76
-2.34044e-78
-6.45408e-78
-1.89203e-78
-2.47076e-79
2.31438e-80
2.01157e-80
4.97987e-81
4.79988e-82
-1.1134e-82
-5.86204e-83
-1.20504e-83
-6.42269e-85
4.20061e-85
1.58446e-85
2.61214e-86
-1.88286e-88
-1.36254e-87
-3.93082e-88
-4.81044e-89
5.30863e-90
3.9173e-90
8.80583e-91
6.44183e-92
-2.41498e-92
-1.00738e-92
-1.72873e-93
-1.12577e-95
7.93937e-95
2.30933e-95
2.77585e-96
-3.06837e-97
-2.16796e-97
-4.63916e-98
-2.84641e-99
1.36277e-99
5.09803e-100
7.81606e-101
-1.86326e-102
-4.08602e-102
-1.03381e-102
-9.67114e-104
2.04217e-104
9.8908e-105
1.75682e-105
3.1291e-107
-6.97931e-107
-2.00659e-107
-2.27013e-108
2.79325e-109
1.73565e-109
3.3664e-110
1.31535e-111
-1.11395e-111
-3.48407e-112
-4.29859e-113
3.75398e-114
2.80967e-114
5.66676e-115
2.69282e-116
-1.70212e-116
-5.49421e-117
-6.89378e-118
5.40685e-119
4.2434e-119
8.49734e-120
3.89972e-121
-2.51954e-121
-7.92165e-122
-9.50738e-123
8.58079e-124
5.99565e-124
1.13919e-124
3.97758e-126
-3.59877e-126
-1.04385e-126
-1.12164e-127
1.41167e-128
7.88667e-129
1.35857e-129
1.86316e-131
-4.881e-131
-1.24882e-131
-1.09785e-132
2.22076e-133
9.55572e-134
1.41971e-134
-3.01681e-136
-6.15608e-136
-1.33927e-136
-8.11839e-138
3.17451e-138
1.05097e-138
1.25941e-139
-1.01369e-140
-7.07296e-141
-1.26121e-141
-2.84063e-143
4.02265e-143
1.03007e-143
8.80134e-145
-1.77034e-145
-7.26135e-146
-1.00613e-146
3.58384e-148
4.45996e-148
8.77328e-149
3.68317e-150
-2.32439e-150
-6.52587e-151
-6.28358e-152
9.21935e-153
4.27852e-153
6.22621e-154
-1.31407e-155
-2.47819e-155
-4.99274e-156
-2.30227e-157
1.23458e-157
3.49553e-158
3.34199e-159
-4.79913e-160
-2.18998e-160
-3.08953e-161
8.24119e-163
1.23055e-162
2.36121e-163
8.85958e-165
-6.08487e-165
-1.59499e-165
-1.34685e-166
2.48467e-167
9.75256e-168
1.23106e-168
-6.44996e-170
-5.42834e-170
-9.24576e-171
-1.46854e-172
2.72651e-172
6.15266e-173
3.87869e-174
-1.19749e-174
-3.73142e-175
-3.81917e-176
4.17566e-177
2.08427e-177
2.92757e-178
-6.83281e-180
-1.07221e-179
-1.96231e-180
-5.81866e-182
5.02342e-182
1.19748e-182
8.33556e-184
-2.07691e-184
-6.76901e-185
-7.0711e-186
6.91711e-187
3.56865e-187
4.95454e-188
-1.17205e-189
-1.75432e-189
-3.104e-190
-7.53034e-192
7.97945e-192
1.7937e-192
1.09146e-193
-3.29035e-194
-9.70529e-195
-8.84402e-196
9.59024e-197
)
;

boundaryField
{
    sides
    {
        type            zeroGradient;
    }
    empty
    {
        type            empty;
    }
}


// ************************************************************************* //
