/*--------------------------------*- C++ -*----------------------------------*\
| =========                 |                                                 |
| \\      /  F ield         | OpenFOAM: The Open Source CFD Toolbox           |
|  \\    /   O peration     | Version:  2312                                  |
|   \\  /    A nd           | Website:  www.openfoam.com                      |
|    \\/     M anipulation  |                                                 |
\*---------------------------------------------------------------------------*/
FoamFile
{
    version     2.0;
    format      ascii;
    arch        "LSB;label=32;scalar=64";
    class       volScalarField;
    location    "1.4";
    object      T;
}
// * * * * * * * * * * * * * * * * * * * * * * * * * * * * * * * * * * * * * //

dimensions      [0 0 0 1 0 0 0];

internalField   nonuniform List<scalar> 
1000
(
0
0
0
0
0
0
0
0
0
0
0
0
0
0
0
0
0
0
0
0
0
0
0
0
0
0
0
0
0
0
0
0
0
0
0
0
0
0
0
0
0
0
0
0
0
0
0
0
0
0
0
0
0
0
0
0
0
0
0
0
0
0
0
0
0
0
0
0
0
0
0
0
0
0
0
0
0
0
0
0
0
0
0
0
0
0
0
0
0
0
0
0
0
0
0
0
0
0
0
0
0
0
0
0
0
0
0
0
0
0
0
0
0
0
0
0
0
0
0
0
0
0
0
0
0
0
0
0
0
0
0
0
0
0
0
0
0
0
0
0
0
0
0
0
0
0
0
0
0
0
0
0
0
0
0
0
0
0
0
0
0
0
0
0
0
0
0
0
0
0
0
0
0
-4.94066e-324
2.96439e-323
-4.94066e-324
2.96439e-323
-4.94066e-324
2.96439e-323
-4.94066e-324
2.96439e-323
-4.94066e-324
2.96439e-323
-4.94066e-324
2.96439e-323
-4.94066e-324
2.96439e-323
-4.94066e-324
2.96439e-323
-4.94066e-324
2.96439e-323
-4.94066e-324
2.96439e-323
-4.94066e-324
2.96439e-323
-4.94066e-324
2.96439e-323
-4.94066e-324
2.96439e-323
-4.94066e-324
2.96439e-323
-4.94066e-324
2.96439e-323
-4.94066e-324
2.96439e-323
-4.94066e-324
2.96439e-323
-4.94066e-324
2.96439e-323
-4.94066e-324
2.96439e-323
-4.94066e-324
2.96439e-323
-2.2727e-322
3.07309e-321
-3.94709e-320
5.08072e-319
-6.53616e-318
8.40881e-317
-1.0818e-315
1.39174e-314
-1.79048e-313
2.30345e-312
-2.9634e-311
3.81243e-310
-4.90471e-309
6.30993e-308
-8.11775e-307
1.04435e-305
-1.34356e-304
1.7285e-303
-2.22372e-302
2.86083e-301
-3.68047e-300
4.73494e-299
-6.09152e-298
7.83677e-297
-1.0082e-295
1.29706e-294
-1.66867e-293
2.14675e-292
-2.76181e-291
3.55308e-290
-4.57105e-289
5.88067e-288
-7.56551e-287
9.73306e-286
-1.25216e-284
1.61091e-283
-2.07244e-282
2.66621e-281
-3.43009e-280
4.41283e-279
-5.67712e-278
7.30364e-277
-9.39616e-276
1.20882e-274
-1.55515e-273
2.00071e-272
-2.57392e-271
3.31136e-270
-4.26008e-269
5.48061e-268
-7.05083e-267
9.07092e-266
-1.16698e-264
1.50132e-263
-1.93146e-262
2.48483e-261
-3.19674e-260
4.11262e-259
-5.29091e-258
6.80677e-257
-8.75695e-256
1.12658e-254
-1.44936e-253
1.8646e-252
-2.39882e-251
3.08609e-250
-3.97027e-249
5.10777e-248
-6.57117e-247
8.45384e-246
-1.08759e-244
1.39919e-243
-1.80006e-242
2.31579e-241
-2.97927e-240
3.83284e-239
-4.93097e-238
6.34372e-237
-8.16121e-236
1.04994e-234
-1.35076e-233
1.73776e-232
-2.23563e-231
2.87615e-230
-3.70017e-229
4.76029e-228
-6.12413e-227
7.87873e-226
-1.0136e-224
1.304e-223
-1.6776e-222
2.15825e-221
-2.77659e-220
3.5721e-219
-4.59552e-218
5.91216e-217
-7.60601e-216
9.78517e-215
-1.25887e-213
1.61954e-212
-2.08354e-211
2.68048e-210
-3.44845e-209
4.43645e-208
-5.70751e-207
7.34274e-206
-9.44647e-205
1.21529e-203
-1.56348e-202
2.01142e-201
-2.5877e-200
3.32909e-199
-4.28289e-198
5.50996e-197
-7.08858e-196
9.11949e-195
-1.17323e-193
1.50936e-192
-1.9418e-191
2.49813e-190
-3.21386e-189
4.13464e-188
-5.31924e-187
6.84322e-186
-8.80383e-185
1.13262e-183
-1.45712e-182
1.87459e-181
-2.41166e-180
3.10262e-179
-3.99153e-178
5.13512e-177
-6.60635e-176
8.4991e-175
-1.09341e-173
1.40668e-172
-1.8097e-171
2.32819e-170
-2.99522e-169
3.85337e-168
-4.95737e-167
6.37768e-166
-8.20491e-165
1.05557e-163
-1.35799e-162
1.74706e-161
-2.2476e-160
2.89155e-159
-3.71999e-158
4.78578e-157
-6.15692e-156
7.92091e-155
-1.01903e-153
1.31098e-152
-1.68659e-151
2.1698e-150
-2.79146e-149
3.59122e-148
-4.62013e-147
5.94381e-146
-7.64674e-145
9.83756e-144
-1.26561e-142
1.62821e-141
-2.0947e-140
2.69484e-139
-3.46692e-138
4.46021e-137
-5.73807e-136
7.38206e-135
-9.49705e-134
1.2218e-132
-1.57185e-131
2.02219e-130
-2.60156e-129
3.34692e-128
-4.30582e-127
5.53946e-126
-7.12654e-125
9.16832e-124
-1.17951e-122
1.51744e-121
-1.9522e-120
2.51151e-119
-3.23107e-118
4.15678e-117
-5.34772e-116
6.87986e-115
-8.85097e-114
1.13868e-112
-1.46492e-111
1.88462e-110
-2.42458e-109
3.11923e-108
-4.0129e-107
5.16261e-106
-6.64172e-105
8.5446e-104
-1.09927e-102
1.41421e-101
-1.81939e-100
2.34065e-99
-3.01126e-98
3.874e-97
-4.98391e-96
6.41183e-95
-8.24884e-94
1.06122e-92
-1.36526e-91
1.75641e-90
-2.25963e-89
2.90703e-88
-3.7399e-87
4.8114e-86
-6.18989e-85
7.96332e-84
-1.02448e-82
1.318e-81
-1.69562e-80
2.18142e-79
-2.80641e-78
3.61045e-77
-4.64486e-76
1.69812e-75
1.74695e-74
-3.00919e-73
-1.77233e-73
1.43249e-71
-2.91994e-71
-6.45589e-70
3.29974e-69
2.89894e-68
-1.99209e-67
-1.39259e-66
8.74508e-66
7.27251e-65
-2.76493e-64
-4.10492e-63
4.42308e-63
2.28825e-61
1.38191e-61
-9.82904e-60
-2.14703e-59
1.8557e-58
1.87541e-57
-4.08002e-58
-9.19462e-56
-2.01674e-55
1.0991e-54
1.84623e-53
1.57802e-53
-3.47549e-52
-7.90817e-51
-1.41567e-49
-2.3854e-48
-1.51403e-47
-8.90366e-48
2.38076e-46
4.01346e-45
5.41391e-44
6.78262e-43
8.0624e-42
9.13724e-41
9.89372e-40
1.02508e-38
1.01763e-37
9.69126e-37
8.86381e-36
7.79407e-35
6.59529e-34
5.37555e-33
4.22377e-32
3.20191e-31
2.34354e-30
1.65726e-29
1.13305e-28
7.49399e-28
4.79768e-27
2.97467e-26
1.78713e-25
1.04086e-24
5.87949e-24
3.22243e-23
1.71434e-22
8.85604e-22
4.44391e-21
2.16679e-20
1.0269e-19
4.73174e-19
2.12039e-18
9.24318e-18
3.92047e-17
1.6183e-16
6.5024e-16
2.54366e-15
9.68923e-15
3.59443e-14
1.2988e-13
4.57168e-13
1.56776e-12
5.23838e-12
1.70552e-11
5.41117e-11
1.67309e-10
5.04145e-10
1.4805e-09
4.23725e-09
1.18188e-08
3.21266e-08
8.51025e-08
2.19674e-07
5.52513e-07
1.35391e-06
3.23204e-06
7.51523e-06
1.70185e-05
3.75268e-05
8.05592e-05
0.000168325
0.000342248
0.000676973
0.00130231
0.00243574
0.00442758
0.00781911
0.0134098
0.022324
0.0360575
0.0564776
0.0857397
0.126088
0.179518
0.247313
0.329506
0.424391
0.528229
0.635319
0.738555
0.83045
0.904459
0.956359
0.9857
0.997251
0.999766
0.999994
1
1
1
1
1
1
1
1
1
1
1
1
1
1
1
1
1
1
1
1
1
1
1
1
1
1
1
1
1
1
1
1
1
1
1
1
1
1
1
1
1
1
1
1
1
1
1
1
1
1
1
1
1
1
1
1
1
1
1
1
1
1
1
1
1
1
0.999999
0.999999
0.999997
0.999992
0.999983
0.999962
0.999919
0.999831
0.999657
0.999322
0.998695
0.99756
0.995566
0.99217
0.986573
0.97765
0.963905
0.943469
0.914188
0.873817
0.820363
0.752546
0.670333
0.575436
0.471595
0.364514
0.261297
0.169432
0.0954571
0.0435903
0.0142772
0.00274275
0.000232771
6.28948e-06
3.94802e-08
4.41216e-11
7.15879e-15
5.96065e-19
5.01028e-23
4.25923e-27
3.65465e-31
3.15373e-35
2.72722e-39
2.35731e-43
2.03381e-47
1.75073e-51
1.50396e-55
1.29004e-59
1.10558e-63
9.4718e-68
8.11528e-72
6.95501e-76
5.96275e-80
5.11371e-84
4.38659e-88
3.76335e-92
3.22879e-96
2.77007e-100
2.37637e-104
2.03846e-108
1.74847e-112
1.49964e-116
1.28617e-120
1.10306e-124
9.45999e-129
8.11298e-133
6.95774e-137
5.96697e-141
5.11725e-145
4.38849e-149
3.76347e-153
3.22743e-157
2.7677e-161
2.37342e-165
2.03529e-169
1.74531e-173
1.49662e-177
1.28336e-181
1.10048e-185
9.43652e-190
8.09165e-194
6.93839e-198
5.94944e-202
5.10141e-206
4.3742e-210
3.75063e-214
3.21591e-218
2.75739e-222
2.36422e-226
2.02709e-230
1.738e-234
1.49013e-238
1.27758e-242
1.09534e-246
9.39077e-251
8.05095e-255
6.90218e-259
5.91722e-263
5.07274e-267
4.3487e-271
3.72795e-275
3.19574e-279
2.73947e-283
2.34831e-287
2.01296e-291
1.72548e-295
1.47903e-299
1.26775e-303
1.08664e-307
9.31393e-312
7.9831e-316
6.84133e-320
0
0
0
0
0
0
0
0
0
0
0
0
0
0
0
0
0
0
0
0
0
0
0
0
0
0
0
0
0
0
0
0
0
0
0
0
0
0
0
0
0
0
0
0
0
0
0
0
0
0
0
0
0
0
0
0
0
0
0
0
0
0
0
0
0
0
0
0
0
0
0
0
0
0
0
0
0
0
0
0
0
0
0
0
0
0
0
0
0
0
0
0
0
0
0
0
0
0
0
0
0
0
0
0
0
0
0
0
0
0
0
0
0
0
0
0
0
0
0
0
0
0
0
0
0
0
0
0
0
0
0
0
0
0
0
0
0
0
0
0
0
0
0
0
0
0
0
0
0
0
0
0
0
0
0
0
0
0
0
0
0
0
0
0
0
0
0
0
0
0
0
0
0
0
0
0
0
0
0
0
0
0
0
0
0
0
0
0
0
0
0
0
0
0
0
0
0
0
0
0
0
0
0
0
0
0
0
0
0
0
0
0
0
0
0
0
0
0
0
0
0
0
0
0
0
0
0
0
0
0
0
0
0
0
0
0
0
0
0
0
0
0
0
0
0
0
0
0
0
0
0
0
0
0
0
0
0
0
0
0
0
0
0
0
)
;

boundaryField
{
    sides
    {
        type            zeroGradient;
    }
    empty
    {
        type            empty;
    }
}


// ************************************************************************* //
