/*--------------------------------*- C++ -*----------------------------------*\
| =========                 |                                                 |
| \\      /  F ield         | OpenFOAM: The Open Source CFD Toolbox           |
|  \\    /   O peration     | Version:  2312                                  |
|   \\  /    A nd           | Website:  www.openfoam.com                      |
|    \\/     M anipulation  |                                                 |
\*---------------------------------------------------------------------------*/
FoamFile
{
    version     2.0;
    format      ascii;
    arch        "LSB;label=32;scalar=64";
    class       volScalarField;
    location    "0.7";
    object      T;
}
// * * * * * * * * * * * * * * * * * * * * * * * * * * * * * * * * * * * * * //

dimensions      [0 0 0 1 0 0 0];

internalField   nonuniform List<scalar> 
1000
(
0
0
0
0
0
0
0
0
0
0
0
0
0
0
0
0
0
0
0
0
0
0
0
0
0
0
0
0
0
0
0
0
0
0
0
0
0
0
0
0
0
0
0
0
0
0
0
0
0
0
0
0
0
0
0
0
0
0
0
0
0
0
0
0
0
0
0
0
0
0
0
0
0
0
0
0
0
0
0
0
0
0
0
0
0
0
0
0
0
0
0
0
0
0
0
0
0
0
0
0
0
0
0
0
0
0
0
0
0
0
0
0
0
0
0
0
0
0
0
0
0
0
0
0
0
0
0
0
0
0
0
0
0
0
0
0
0
0
0
0
0
0
0
0
0
0
0
0
0
0
0
0
0
0
0
0
0
0
0
0
0
0
1.4822e-323
-6.42285e-322
2.64177e-320
-1.08063e-318
4.39586e-317
-1.77752e-315
7.14473e-314
-2.85467e-312
1.13376e-310
-4.47589e-309
1.75641e-307
-6.85102e-306
2.65624e-304
-1.02366e-302
3.92123e-301
-1.49299e-299
5.65013e-298
-2.12532e-296
7.94598e-295
-2.95275e-293
1.09058e-291
-4.00347e-290
1.46069e-288
-5.29686e-287
1.90904e-285
-6.83818e-284
2.43441e-282
-8.61326e-281
3.02872e-279
-1.05843e-277
3.67601e-276
-1.2688e-274
4.35221e-273
-1.48361e-271
5.02595e-270
-1.69201e-268
5.66062e-267
-1.88192e-265
6.21738e-264
-2.04116e-262
6.65895e-261
-2.15868e-259
6.95371e-258
-2.22581e-256
7.07941e-255
-2.23736e-253
7.02589e-252
-2.19223e-250
6.79647e-249
-2.09358e-247
6.40761e-246
-1.94849e-244
5.88695e-243
-1.76711e-241
5.27006e-240
-1.56148e-238
4.59643e-237
-1.34419e-235
3.90529e-234
-1.12716e-232
3.2319e-231
-9.20571e-230
2.60483e-228
-7.32178e-227
2.04438e-225
-5.6703e-224
1.56222e-222
-4.2753e-221
1.16216e-219
-3.13788e-218
8.41526e-217
-2.24157e-215
5.9304e-214
-1.5583e-212
4.06677e-211
-1.05407e-209
2.7133e-208
-6.93636e-207
1.761e-205
-4.4399e-204
1.11164e-202
-2.7639e-201
6.82398e-200
-1.67303e-198
4.07293e-197
-9.84558e-196
2.36317e-194
-5.63195e-193
1.33267e-191
-3.13095e-190
7.30313e-189
-1.69126e-187
3.8884e-186
-8.87521e-185
2.01105e-183
-4.52369e-182
1.01013e-180
-2.23905e-179
4.92654e-178
-1.07597e-176
2.33253e-175
-5.0189e-174
1.07185e-172
-2.27191e-171
4.77932e-170
-9.9781e-169
2.06739e-167
-4.25086e-166
8.67357e-165
-1.75619e-163
3.52847e-162
-7.03438e-161
1.39148e-159
-2.73102e-158
5.31809e-157
-1.02744e-155
1.96928e-154
-3.74453e-153
7.06333e-152
-1.32169e-150
2.45323e-149
-4.51672e-148
8.24834e-147
-1.494e-145
2.68387e-144
-4.78167e-143
8.44865e-142
-1.48036e-140
2.57219e-139
-4.43173e-138
7.57116e-137
-1.28248e-135
2.15386e-134
-3.58628e-133
5.91987e-132
-9.68723e-131
1.5714e-129
-2.52669e-128
4.02693e-127
-6.36111e-126
9.95875e-125
-1.54514e-123
2.37575e-122
-3.61974e-121
5.46483e-120
-8.17473e-119
1.21156e-117
-1.77894e-116
2.58764e-115
-3.72856e-114
5.32171e-113
-7.52322e-112
1.05335e-110
-1.4606e-109
2.00562e-108
-2.72708e-107
3.67155e-106
-4.89408e-105
6.45852e-104
-8.43731e-103
1.09107e-101
-1.39651e-100
1.76907e-99
-2.21781e-98
2.75133e-97
-3.37729e-96
4.10168e-95
-4.92818e-94
5.8574e-93
-6.88615e-92
8.00687e-91
-9.20707e-90
1.04691e-88
-1.17703e-87
1.30831e-86
-1.43757e-85
1.56135e-84
-1.67601e-83
1.7779e-82
-1.86357e-81
1.9299e-80
-1.97437e-79
1.99511e-78
-1.99111e-77
1.96227e-76
-1.90939e-75
1.83419e-74
-1.73917e-73
1.62752e-72
-1.5029e-71
1.36924e-70
-1.23058e-69
1.09079e-68
-9.53463e-68
8.21701e-67
-6.98057e-66
5.84454e-65
-4.82175e-64
3.91888e-63
-3.1371e-62
2.47289e-61
-1.91906e-60
1.46579e-59
-1.10165e-58
8.1449e-58
-5.92214e-57
4.23344e-56
-2.97438e-55
2.05327e-54
-1.39217e-53
9.26793e-53
-6.05549e-52
3.88167e-51
-2.44009e-50
1.50353e-49
-9.07677e-49
5.36583e-48
-3.10448e-47
1.75683e-46
-9.7181e-46
5.251e-45
-2.76938e-44
1.42445e-43
-7.13901e-43
3.48274e-42
-1.65201e-41
7.60966e-41
-3.3991e-40
1.46995e-39
-6.1428e-39
2.4751e-38
-9.5904e-38
3.56203e-37
-1.26305e-36
4.25346e-36
-1.35084e-35
4.0054e-35
-1.09185e-34
2.66435e-34
-5.50915e-34
8.22872e-34
-1.52505e-34
-4.71552e-33
2.1785e-32
-6.3283e-32
1.25878e-31
-1.11351e-31
-3.57748e-31
2.11422e-30
-5.83621e-30
8.48833e-30
5.6677e-30
-7.30478e-29
2.17174e-28
-2.79092e-28
-4.21085e-28
3.0402e-27
-6.81029e-27
1.99379e-27
3.51245e-26
-1.104e-25
9.08286e-26
4.13982e-25
-1.5807e-24
1.43758e-24
5.80259e-24
-2.14018e-23
1.30919e-23
9.49239e-23
-2.63057e-22
-3.56385e-23
1.5393e-21
-2.45227e-21
-4.51979e-21
2.04872e-20
-5.1392e-21
-1.04363e-19
1.61697e-19
3.66981e-19
-1.27002e-18
-6.46077e-19
7.29532e-18
-2.82949e-18
-3.576e-17
3.89446e-17
1.60246e-16
-2.80248e-16
-6.91399e-16
1.64468e-15
3.02556e-15
-8.67629e-15
-1.40937e-14
4.24825e-14
7.151e-14
-1.93159e-13
-3.87859e-13
7.9067e-13
2.14338e-12
-2.64996e-12
-1.14245e-11
4.77564e-12
5.55219e-11
2.33064e-11
-2.28051e-10
-3.24374e-10
6.64444e-10
2.16509e-09
-2.63219e-10
-9.62139e-09
-1.20005e-08
2.31898e-08
8.52606e-08
4.04592e-08
-2.80696e-07
-6.55363e-07
-7.44303e-08
2.45456e-06
5.15461e-06
1.08981e-06
-1.743e-05
-4.26167e-05
-3.20538e-05
8.20272e-05
0.000316624
0.000497951
0.00015825
-0.00132859
-0.00417315
-0.00715535
-0.00652539
0.00449385
0.0349
0.0935533
0.185826
0.310553
0.458767
0.6151
0.761608
0.882623
0.968785
1.01878
1.03836
1.03742
1.02641
1.0136
1.00375
0.998339
0.996677
0.997196
0.998439
0.999514
1.00011
1.00028
1.00023
1.00011
1.00002
0.999982
0.999977
0.999986
0.999995
1
1
1
1
1
1
1
1
1
1
1
1
1
1
1
1
1
1
1
1
1
1
1
1
1
1
1
1
1
1
1
1
1
1
1
1
1
1
1
1
1
1
1
1
1
1
1
1
1
1
1
1
1
1
1
1
0.999998
0.999995
0.999999
1.00002
1.00004
1.00003
0.999918
0.999683
0.999502
0.999842
1.00133
1.00417
1.00716
1.00653
0.995506
0.9651
0.906447
0.814174
0.689447
0.541233
0.3849
0.238392
0.117377
0.0312152
-0.0187779
-0.038362
-0.0374194
-0.0264124
-0.0135984
-0.00374718
0.00166088
0.00332269
0.00280407
0.00156108
0.000485605
-0.000110296
-0.000284788
-0.000229133
-0.00011186
-2.25932e-05
1.7685e-05
2.3021e-05
1.41023e-05
4.60754e-06
-5.78719e-07
-1.89456e-06
-1.35615e-06
-5.15823e-07
-7.83933e-09
1.42238e-07
1.10462e-07
4.32905e-08
1.77281e-09
-1.0376e-08
-7.93691e-09
-2.92265e-09
-3.82648e-12
7.39025e-10
5.05615e-10
1.58745e-10
-1.71847e-11
-4.93641e-11
-2.80272e-11
-6.48923e-12
2.33131e-12
2.93756e-12
1.30026e-12
1.47633e-13
-1.94616e-13
-1.48704e-13
-4.68235e-14
3.80386e-15
1.19547e-14
6.09766e-15
1.04433e-15
-6.35655e-16
-5.62178e-16
-1.86013e-16
7.26132e-18
3.96286e-17
1.99025e-17
3.14917e-18
-2.03551e-18
-1.6413e-18
-4.79325e-19
4.93604e-20
1.10382e-19
4.69089e-20
4.18124e-21
-6.02477e-21
-3.67125e-21
-7.67624e-22
2.44383e-22
2.44256e-22
7.5801e-23
-4.04312e-24
-1.41003e-23
-5.88713e-24
-4.76619e-25
7.04749e-25
3.92852e-25
6.80231e-26
-2.95516e-26
-2.33403e-26
-5.8217e-27
9.25926e-28
1.2564e-27
4.04424e-28
-9.16796e-30
-6.18118e-29
-2.46678e-29
-1.58658e-30
2.78727e-30
1.36638e-30
1.7551e-31
-1.1487e-31
-7.00052e-32
-1.26357e-32
4.27868e-33
3.35611e-33
7.57576e-34
-1.40062e-34
-1.51782e-34
-4.05348e-35
3.73197e-36
6.51582e-36
1.99523e-36
-5.80212e-38
-2.66861e-37
-9.18609e-38
-1.54287e-39
1.04733e-38
3.99716e-39
2.06611e-40
-3.95469e-40
-1.65557e-40
-1.30606e-41
1.44226e-41
6.56103e-42
6.57998e-43
-5.0992e-43
-2.4977e-43
-2.92317e-44
1.75424e-44
9.16199e-45
1.18965e-45
-5.89321e-46
-3.24618e-46
-4.51856e-47
1.93962e-47
1.11306e-47
1.61843e-48
-6.27217e-49
-3.69878e-49
-5.50036e-50
1.99705e-50
1.19254e-50
1.78035e-51
-6.26893e-52
-3.73324e-52
-5.49958e-53
1.94079e-53
1.13527e-53
1.62253e-54
-5.92242e-55
-3.35427e-55
-4.56983e-56
1.77904e-56
9.62853e-57
1.22651e-57
-5.25101e-58
-2.68454e-58
-3.12585e-59
1.51972e-59
7.26651e-60
7.51755e-61
-4.30343e-61
-1.90827e-61
-1.68739e-62
1.1899e-62
4.85781e-63
3.46209e-64
-3.20658e-64
-1.19745e-64
-6.2029e-66
8.40807e-66
2.85435e-66
8.4753e-68
-2.14213e-67
-6.56841e-68
-2.89278e-70
5.29589e-69
1.45605e-69
-3.62871e-71
-1.26904e-70
-3.10043e-71
1.84941e-72
2.94432e-72
6.31673e-73
-6.44413e-74
-6.60686e-74
-1.22439e-74
1.90841e-75
1.43221e-75
2.23812e-76
-5.11023e-77
-2.99542e-77
-3.80111e-78
1.2702e-78
6.03487e-79
5.82803e-80
-2.97033e-80
-1.16893e-80
-7.53396e-82
6.5848e-82
2.17116e-82
6.37039e-84
-1.39012e-83
-3.85318e-84
4.07003e-86
2.80219e-85
6.49986e-86
-3.78258e-87
-5.4013e-87
-1.03378e-87
1.22802e-88
9.95992e-89
1.5292e-89
-3.10193e-90
-1.75626e-90
-2.0502e-91
6.87325e-92
2.95739e-92
2.34757e-93
-1.39288e-93
-4.74374e-94
-1.87728e-95
2.63122e-95
7.21765e-96
-3.8306e-98
-4.67905e-97
-1.03447e-97
6.15777e-99
7.87345e-99
1.38005e-99
-1.80978e-100
-1.25664e-100
-1.67552e-101
3.99285e-102
1.90295e-102
1.76094e-103
-7.6401e-104
-2.72947e-104
-1.37276e-105
1.32891e-105
3.69318e-106
1.25154e-108
-2.14494e-107
-4.67783e-108
2.48859e-109
3.2451e-109
5.46741e-110
-7.06066e-111
-4.62349e-111
-5.72801e-112
1.41869e-112
6.21093e-113
5.00894e-114
-2.43333e-114
-7.85202e-115
-2.77411e-116
3.76577e-116
9.29078e-117
-1.52826e-118
-5.38133e-118
-1.01734e-118
8.35703e-120
7.17755e-120
1.00755e-120
-1.79411e-121
-8.97505e-122
-8.55792e-123
3.01374e-123
1.05221e-123
5.24739e-125
-4.4318e-125
-1.15174e-125
6.75906e-129
5.93253e-127
1.16509e-127
-7.34567e-129
-7.35274e-129
-1.06589e-129
1.62291e-130
8.499e-131
8.38448e-132
-2.60302e-132
-9.17532e-133
-4.82949e-134
3.57835e-134
9.21724e-135
1.84425e-137
-4.43634e-136
-8.52579e-137
5.17389e-138
5.06536e-138
7.09353e-139
-1.07221e-139
-5.37366e-140
-5.01597e-141
1.58632e-141
5.3065e-142
2.4842e-143
-2.00193e-143
-4.85748e-144
2.41172e-146
2.27271e-145
4.07134e-146
-2.87009e-147
-2.3714e-147
-3.03736e-148
5.12919e-149
2.29404e-149
1.8746e-150
-6.80443e-151
-2.05984e-151
-7.12064e-153
7.7715e-153
1.70686e-153
-3.31793e-155
-8.00842e-155
-1.28474e-155
1.16625e-156
7.58902e-157
8.45868e-158
-1.73895e-158
-6.6604e-159
-4.37221e-160
2.0386e-160
5.41047e-161
9.41136e-163
-2.09019e-162
-4.03332e-163
1.63027e-164
1.94487e-164
2.69942e-165
-3.28819e-166
-1.66719e-166
-1.5354e-167
4.10509e-168
1.32266e-168
6.15442e-170
-4.23968e-170
-9.6801e-171
3.66154e-173
3.89199e-172
6.4516e-173
-4.37338e-174
-3.26304e-174
-3.79301e-175
6.29772e-176
2.52539e-176
1.80216e-177
-6.6914e-178
-1.807e-178
-4.57507e-180
6.10894e-180
1.18734e-180
-3.38633e-182
-5.02579e-182
-7.02755e-183
7.18821e-184
3.7974e-184
3.56957e-185
-8.18043e-186
-2.65258e-186
-1.33078e-187
7.52798e-188
1.70989e-188
4.49461e-191
-6.11265e-190
-1.00577e-190
5.70402e-192
4.52061e-192
5.24588e-193
-7.63573e-194
-3.08395e-194
-2.24601e-195
7.25649e-196
1.94627e-196
5.6775e-198
-5.87271e-198
-1.1302e-198
2.37699e-200
4.27112e-200
5.93745e-201
-5.24429e-202
-2.8517e-202
-2.70485e-203
5.4108e-204
1.76191e-204
9.38796e-206
-4.44015e-206
-1.00692e-206
-9.06715e-209
3.20122e-208
5.27429e-209
-2.37166e-210
-2.10053e-210
-2.47225e-211
3.0381e-212
1.27274e-212
9.74624e-214
-2.61441e-214
-7.15239e-215
-2.57107e-216
1.89479e-216
3.71566e-217
-3.51721e-219
-1.23061e-218
-1.76174e-219
1.52585e-220
)
;

boundaryField
{
    sides
    {
        type            zeroGradient;
    }
    empty
    {
        type            empty;
    }
}


// ************************************************************************* //
