/*--------------------------------*- C++ -*----------------------------------*\
| =========                 |                                                 |
| \\      /  F ield         | OpenFOAM: The Open Source CFD Toolbox           |
|  \\    /   O peration     | Version:  2312                                  |
|   \\  /    A nd           | Website:  www.openfoam.com                      |
|    \\/     M anipulation  |                                                 |
\*---------------------------------------------------------------------------*/
FoamFile
{
    version     2.0;
    format      ascii;
    arch        "LSB;label=32;scalar=64";
    class       volScalarField;
    location    "2.1";
    object      T;
}
// * * * * * * * * * * * * * * * * * * * * * * * * * * * * * * * * * * * * * //

dimensions      [0 0 0 1 0 0 0];

internalField   nonuniform List<scalar> 
1000
(
0
0
0
0
0
0
0
0
0
0
0
0
0
0
0
0
0
0
0
0
0
0
0
0
0
0
0
0
0
0
0
0
0
0
0
0
0
0
0
0
0
0
0
0
0
0
0
0
0
0
0
0
0
0
0
0
0
0
0
0
0
0
0
0
0
0
0
0
0
0
0
0
0
0
0
0
0
0
0
0
0
0
0
0
0
0
0
0
0
0
0
0
0
0
0
0
0
0
0
0
0
0
0
0
0
0
0
0
0
0
0
0
0
0
0
0
0
0
0
0
0
0
0
0
0
0
0
0
0
0
0
0
0
0
0
0
0
0
0
0
0
0
0
0
0
0
0
0
0
0
0
0
0
0
0
0
0
0
0
0
0
0
0
0
0
0
0
0
0
0
0
0
0
0
0
0
0
0
0
0
0
0
0
0
0
0
0
0
0
0
0
0
0
0
0
0
0
0
0
0
0
0
0
0
0
0
0
0
0
0
0
0
0
0
0
0
0
0
0
0
0
0
0
0
0
0
0
0
0
0
0
0
0
0
0
0
0
0
0
0
0
0
0
0
0
0
0
0
0
0
0
0
0
0
0
0
0
0
0
0
0
0
0
0
0
0
0
0
0
0
0
0
0
0
0
0
0
0
0
0
0
0
0
0
0
0
0
0
0
0
0
0
0
0
0
0
0
0
0
0
0
0
0
0
0
0
0
0
0
0
0
0
0
0
0
0
0
0
0
0
0
0
0
0
0
0
0
0
0
0
0
0
0
0
0
0
0
0
0
0
0
0
0
0
0
0
0
0
0
0
0
0
0
0
0
0
0
0
0
0
0
0
0
0
0
0
0
0
0
0
0
0
0
0
0
0
0
0
0
0
0
0
0
0
0
0
0
0
0
0
0
0
0
0
0
0
0
0
0
0
0
0
0
0
5.3662e-91
-3.60231e-75
2.16456e-67
-1.26847e-63
-4.80195e-62
1.01141e-60
1.30493e-58
5.29338e-57
1.39482e-55
2.78036e-54
4.48931e-53
6.10827e-52
7.18717e-51
7.44696e-50
6.88523e-49
5.73602e-48
4.33662e-47
2.99012e-46
1.88581e-45
1.08869e-44
5.74126e-44
2.74781e-43
1.17583e-42
4.344e-42
1.25345e-41
1.62115e-41
-1.22773e-40
-1.38558e-39
-9.33457e-39
-5.17626e-38
-2.55863e-37
-1.16508e-36
-4.97019e-36
-2.00552e-35
-7.69812e-35
-2.8204e-34
-9.88222e-34
-3.3152e-33
-1.06565e-32
-3.28495e-32
-9.7226e-32
-2.76861e-31
-7.60996e-31
-2.02888e-30
-5.28144e-30
-1.35304e-29
-3.43862e-29
-8.71878e-29
-2.2083e-28
-5.56276e-28
-1.38087e-27
-3.33718e-27
-7.74798e-27
-1.70402e-26
-3.4942e-26
-6.54146e-26
-1.08026e-25
-1.46248e-25
-1.26895e-25
5.80348e-26
5.33399e-25
1.19201e-24
8.92156e-25
-4.49028e-24
-2.58502e-23
-8.64976e-23
-2.26818e-22
-4.9772e-22
-9.17987e-22
-1.34828e-21
-1.21273e-21
9.93084e-22
8.3652e-21
2.60696e-20
6.06111e-20
1.15759e-19
1.81634e-19
2.12726e-19
9.25446e-20
-4.09097e-19
-1.65984e-18
-4.10575e-18
-8.01042e-18
-1.28267e-17
-1.60829e-17
-1.18152e-17
1.19255e-17
7.56099e-17
2.06619e-16
4.17334e-16
6.48474e-16
5.87376e-16
-1.271e-15
-4.7757e-15
-4.77208e-15
7.37496e-15
2.06247e-14
3.30025e-15
-4.52362e-14
-4.43422e-14
5.98024e-14
1.44539e-13
-8.80819e-15
-3.13692e-13
-2.328e-13
4.60303e-13
8.57056e-13
-1.92687e-13
-1.94752e-12
-1.35359e-12
2.82517e-12
5.25493e-12
-6.38025e-13
-1.1275e-11
-9.67896e-12
1.25576e-11
3.27177e-11
8.59623e-12
-5.81747e-11
-7.55437e-11
2.91823e-11
1.86184e-10
1.49291e-10
-1.99763e-10
-5.20287e-10
-2.2789e-10
7.67888e-10
1.35582e-09
1.86189e-10
-2.46754e-09
-3.37374e-09
2.85911e-10
7.16693e-09
8.5052e-09
-1.80714e-09
-1.96136e-08
-2.22374e-08
4.4834e-09
5.08889e-08
6.12317e-08
-3.38077e-09
-1.24887e-07
-1.74178e-07
-3.46708e-08
2.80638e-07
4.86958e-07
2.46797e-07
-5.18356e-07
-1.29335e-06
-1.10697e-06
5.337e-07
3.00888e-06
3.90109e-06
1.27032e-06
-5.04687e-06
-1.10588e-05
-1.00025e-05
1.86649e-06
2.20322e-05
3.56807e-05
2.57982e-05
-1.53883e-05
-7.66199e-05
-0.000113993
-8.31627e-05
4.0215e-05
0.000230284
0.000375459
0.000337679
3.34006e-05
-0.000534765
-0.00116878
-0.00142282
-0.000988869
0.000359645
0.00253051
0.00485008
0.00597119
0.00488021
0.000737757
-0.00681013
-0.0169137
-0.0269975
-0.0326365
-0.030195
-0.016616
0.0118572
0.0575641
0.120876
0.200079
0.291606
0.390573
0.491514
0.58914
0.678989
0.757862
0.823993
0.876984
0.91756
0.947222
0.967887
0.981566
0.990128
0.99516
0.997904
0.999261
0.999841
0.999998
1
1
1
1
1
1
1
1
1
1
1
1
1
1
1
1
1
1
1
1
1
1
1
1
1
1
1
1
1
1
1
1
1
1
1
1
1
1
1
1
1
1
0.999999
0.999997
0.999996
0.999999
1.00001
1.00001
1.00001
0.999998
0.999978
0.999964
0.999974
1.00002
1.00008
1.00011
1.00008
0.99996
0.99977
0.999625
0.999664
0.999967
1.00054
1.00117
1.00142
1.00099
0.99964
0.997468
0.99515
0.994033
0.995123
0.999267
1.00682
1.01693
1.027
1.03262
1.03016
1.01656
0.988068
0.942341
0.879011
0.799795
0.708262
0.609296
0.508364
0.410751
0.320918
0.242063
0.17595
0.122974
0.0824114
0.0527589
0.0321014
0.0184277
0.00986827
0.00483807
0.00209578
0.000738339
0.000158709
2.44163e-06
2.91737e-16
2.87469e-16
2.79805e-16
2.67121e-16
2.50647e-16
2.31438e-16
2.10484e-16
1.88689e-16
1.66847e-16
1.45623e-16
1.25538e-16
1.0697e-16
9.0158e-17
7.52182e-17
6.21645e-17
5.09309e-17
4.13954e-17
3.34001e-17
2.677e-17
2.13258e-17
1.68945e-17
1.33159e-17
1.0446e-17
8.15882e-18
6.34628e-18
4.91721e-18
3.79574e-18
2.91948e-18
2.2376e-18
1.70905e-18
1.30087e-18
9.86795e-19
7.45995e-19
5.62026e-19
4.21971e-19
3.15722e-19
2.35405e-19
1.74904e-19
1.29495e-19
9.55337e-20
7.02272e-20
5.14384e-20
3.75399e-20
2.72969e-20
1.97761e-20
1.42746e-20
1.02655e-20
7.35492e-21
5.24995e-21
3.7334e-21
2.64497e-21
1.86681e-21
1.31263e-21
9.19471e-22
6.41637e-22
4.46059e-22
3.08921e-22
2.13134e-22
1.4649e-22
1.00303e-22
6.84178e-23
4.6492e-23
3.14732e-23
2.12256e-23
1.42606e-23
9.54507e-24
6.3648e-24
4.22824e-24
2.79839e-24
1.84516e-24
1.21211e-24
7.93295e-25
5.17275e-25
3.36051e-25
2.17516e-25
1.40277e-25
9.01351e-26
5.77061e-26
3.68108e-26
2.3397e-26
1.48178e-26
9.35081e-27
5.87983e-27
3.68413e-27
2.30021e-27
1.43109e-27
8.87239e-28
5.48142e-28
3.37467e-28
2.07042e-28
1.26586e-28
7.71281e-29
4.68327e-29
2.83399e-29
1.7091e-29
1.02722e-29
6.15298e-30
3.6732e-30
2.18547e-30
1.29596e-30
7.65927e-31
4.5117e-31
2.64883e-31
1.55001e-31
9.04032e-32
5.25545e-32
3.04521e-32
1.75877e-32
1.01249e-32
5.80987e-33
3.32308e-33
1.89461e-33
1.07673e-33
6.09966e-34
3.44447e-34
1.93892e-34
1.08798e-34
6.08577e-35
3.39346e-35
1.88629e-35
1.04525e-35
5.77398e-36
3.17967e-36
1.7456e-36
9.55364e-37
5.21261e-37
2.83537e-37
1.53758e-37
8.31267e-38
4.48048e-38
2.40765e-38
1.28988e-38
6.88968e-39
3.66898e-39
1.94801e-39
1.0312e-39
5.44257e-40
2.86403e-40
1.50268e-40
7.86101e-41
4.10029e-41
2.13245e-41
1.1058e-41
5.71756e-42
2.94771e-42
1.51532e-42
7.76735e-43
3.97003e-43
2.02335e-43
1.02827e-43
5.21087e-44
2.63318e-44
1.32685e-44
6.66716e-45
3.34071e-45
1.66925e-45
8.31743e-46
4.13285e-46
2.04788e-46
1.01195e-46
4.98674e-47
2.45065e-47
1.20103e-47
5.87007e-48
2.86121e-48
1.39084e-48
6.74266e-49
3.25997e-49
1.57192e-49
7.55929e-50
3.62554e-50
1.73424e-50
8.27356e-51
3.93665e-51
1.86817e-51
8.84229e-52
4.17422e-52
1.9654e-52
9.22987e-53
4.32328e-53
2.0198e-53
9.412e-54
4.37461e-54
2.02808e-54
9.3782e-55
4.32562e-55
1.9901e-55
9.13278e-56
4.18056e-56
1.90886e-56
8.69411e-57
3.94994e-57
1.79009e-57
8.09243e-58
3.64929e-58
1.6416e-58
7.36641e-59
3.29746e-59
1.47245e-59
6.55911e-60
2.91469e-60
1.29208e-60
5.71394e-61
2.52079e-61
1.10942e-61
4.87097e-62
2.13353e-62
9.32288e-63
4.06416e-63
1.76753e-63
7.66897e-64
3.31961e-64
1.43358e-64
6.17648e-65
2.65491e-65
1.13855e-65
4.87131e-66
2.07941e-66
8.85595e-67
3.763e-67
1.59529e-67
6.74772e-68
2.84765e-68
1.19904e-68
5.03729e-69
2.11146e-69
8.83069e-70
3.68497e-70
1.53428e-70
6.37392e-71
2.64208e-71
1.09276e-71
4.50968e-72
1.857e-72
7.62999e-73
3.12815e-73
1.27969e-73
5.22368e-74
2.12769e-74
8.6477e-75
3.50718e-75
1.41932e-75
5.73158e-76
2.30962e-76
9.28712e-77
3.72648e-77
1.4921e-77
5.96182e-78
2.37709e-78
9.45803e-79
3.75531e-79
1.48794e-79
5.88329e-80
2.32142e-80
9.14087e-81
3.59191e-81
1.40854e-81
5.51216e-82
2.15271e-82
8.39002e-83
3.26329e-83
1.26668e-83
4.90683e-84
1.89695e-84
7.31879e-85
2.81805e-85
1.08291e-85
4.15303e-86
1.58955e-86
6.07187e-87
2.31478e-87
8.80725e-88
3.34438e-88
1.26747e-88
4.79414e-89
1.80982e-89
6.81889e-90
2.56418e-90
9.62371e-91
3.60494e-91
1.34777e-91
5.02921e-92
1.87306e-92
6.96263e-93
2.58325e-93
9.56612e-94
3.53575e-94
1.30438e-94
)
;

boundaryField
{
    sides
    {
        type            zeroGradient;
    }
    empty
    {
        type            empty;
    }
}


// ************************************************************************* //
