/*--------------------------------*- C++ -*----------------------------------*\
| =========                 |                                                 |
| \\      /  F ield         | OpenFOAM: The Open Source CFD Toolbox           |
|  \\    /   O peration     | Version:  2312                                  |
|   \\  /    A nd           | Website:  www.openfoam.com                      |
|    \\/     M anipulation  |                                                 |
\*---------------------------------------------------------------------------*/
FoamFile
{
    version     2.0;
    format      ascii;
    arch        "LSB;label=32;scalar=64";
    class       volScalarField;
    location    "0.8";
    object      T;
}
// * * * * * * * * * * * * * * * * * * * * * * * * * * * * * * * * * * * * * //

dimensions      [0 0 0 1 0 0 0];

internalField   nonuniform List<scalar> 
1000
(
9.8533e-208
-6.47982e-207
3.79887e-206
-2.23182e-205
1.30901e-204
-7.66518e-204
4.48125e-203
-2.6156e-202
1.52418e-201
-8.8673e-201
5.15035e-200
-2.98656e-199
1.72898e-198
-9.99299e-198
5.76611e-197
-3.32163e-196
1.91029e-195
-1.0968e-194
6.28678e-194
-3.59753e-193
2.05519e-192
-1.17212e-191
6.67361e-191
-3.79329e-190
2.15247e-189
-1.21933e-188
6.89553e-188
-3.8929e-187
2.194e-186
-1.23441e-185
6.93318e-185
-3.8874e-184
2.17589e-183
-1.2158e-182
6.78167e-182
-3.7762e-181
2.09902e-180
-1.16471e-179
6.45148e-179
-3.56729e-178
1.96903e-177
-1.08492e-176
5.96728e-176
-3.2763e-175
1.79564e-174
-9.82379e-174
5.36491e-173
-2.9246e-172
1.59144e-171
-8.64432e-171
4.68691e-170
-2.53662e-169
1.37036e-168
-7.38963e-168
3.97757e-167
-2.13706e-166
1.14609e-165
-6.13508e-165
3.27809e-164
-1.7483e-163
9.30691e-163
-4.94523e-162
2.62275e-161
-1.3884e-160
7.33593e-160
-3.86883e-159
2.0365e-158
-1.06996e-157
5.61079e-157
-2.93667e-156
1.53411e-155
-7.99887e-155
4.16261e-154
-2.16206e-153
1.1208e-152
-5.79898e-152
2.99454e-151
-1.54335e-150
7.93867e-150
-4.07551e-149
2.08816e-148
-1.0678e-147
5.4495e-147
-2.77564e-146
1.41094e-145
-7.15791e-145
3.62407e-144
-1.8312e-143
9.23425e-143
-4.6472e-142
2.33401e-141
-1.16986e-140
5.85166e-140
-2.92105e-139
1.45515e-138
-7.23415e-138
3.58898e-137
-1.77687e-136
8.77895e-136
-4.32838e-135
2.12962e-134
-1.04561e-133
5.12302e-133
-2.50477e-132
1.22206e-131
-5.94973e-131
2.89054e-130
-1.40131e-129
6.77892e-129
-3.27231e-128
1.57621e-127
-7.57592e-127
3.63342e-126
-1.73881e-125
8.30311e-125
-3.95621e-124
1.8809e-123
-8.92264e-123
4.2234e-122
-1.99466e-121
9.39957e-121
-4.41955e-120
2.07337e-119
-9.70505e-119
4.53253e-118
-2.11203e-117
9.81916e-117
-4.55469e-116
2.1079e-115
-9.733e-115
4.48377e-114
-2.0608e-113
9.4498e-113
-4.32314e-112
1.97316e-111
-8.98478e-111
4.08161e-110
-1.84983e-109
8.3638e-109
-3.77263e-108
1.69765e-107
-7.62102e-107
3.41299e-106
-1.52479e-105
6.79571e-105
-3.02137e-104
1.34003e-103
-5.92876e-103
2.61665e-102
-1.15201e-101
5.05935e-101
-2.21643e-100
9.68568e-100
-4.22201e-99
1.83577e-98
-7.962e-98
3.4445e-97
-1.48637e-96
6.39765e-96
-2.74664e-95
1.17616e-94
-5.02354e-94
2.14007e-93
-9.09319e-93
3.85364e-92
-1.62887e-91
6.86686e-91
-2.88723e-90
1.21075e-89
-5.06369e-89
2.11212e-88
-8.78625e-88
3.64516e-87
-1.50818e-86
6.22312e-86
-2.5608e-85
1.05088e-84
-4.30065e-84
1.75514e-83
-7.14306e-83
2.89897e-82
-1.17324e-81
4.73487e-81
-1.90546e-80
7.64645e-80
-3.05971e-79
1.22084e-78
-4.85719e-78
1.92689e-77
-7.622e-77
3.00617e-76
-1.18219e-75
4.63535e-75
-1.81215e-74
7.06341e-74
-2.74499e-73
1.06357e-72
-4.10848e-72
1.58228e-71
-6.07527e-71
2.32553e-70
-8.87452e-70
3.37621e-69
-1.28047e-68
4.84122e-68
-1.82466e-67
6.8556e-67
-2.56765e-66
9.58624e-66
-3.56759e-65
1.32345e-64
-4.89376e-64
1.80372e-63
-6.62649e-63
2.42648e-62
-8.85606e-62
3.22158e-61
-1.16803e-60
4.22074e-60
-1.52007e-59
5.456e-59
-1.95169e-58
6.95767e-58
-2.47188e-57
8.75174e-57
-3.08784e-56
1.08567e-55
-3.80384e-55
1.32805e-54
-4.62025e-54
1.60166e-53
-5.53242e-53
1.90412e-52
-6.5298e-52
2.23111e-51
-7.59536e-51
2.57616e-50
-8.70533e-50
2.93073e-49
-9.8296e-49
3.28439e-48
-1.09326e-47
3.62517e-47
-1.19746e-46
3.94018e-46
-1.29145e-45
4.21635e-45
-1.37114e-44
4.44123e-44
-1.43281e-43
4.60393e-43
-1.47337e-42
4.69595e-42
-1.49058e-41
4.71189e-41
-1.4833e-40
4.64995e-40
-1.45157e-39
4.51217e-39
-1.39662e-38
4.30433e-38
-1.32084e-37
4.03557e-37
-1.22758e-36
3.71773e-36
-1.12091e-35
3.36444e-35
-1.0053e-34
2.99018e-34
-8.8534e-34
2.60925e-33
-7.65417e-33
2.23483e-32
-6.49435e-32
1.87827e-31
-5.40625e-31
1.54857e-30
-4.41416e-30
1.25207e-29
-3.53391e-29
9.92455e-29
-2.77318e-28
7.70968e-28
-2.1324e-27
5.86755e-27
-1.60612e-26
4.37338e-26
-1.18454e-25
3.19124e-25
-8.5511e-25
2.27886e-24
-6.03981e-24
1.59191e-23
-4.17233e-23
1.08738e-22
-2.81776e-22
7.25976e-22
-1.85956e-21
4.73527e-21
-1.19866e-20
3.01609e-20
-7.54324e-20
1.87504e-19
-4.63205e-19
1.13715e-18
-2.77407e-18
6.72416e-18
-1.61938e-17
3.87456e-17
-9.20918e-17
2.17427e-16
-5.09879e-16
1.18753e-15
-2.7467e-15
6.30855e-15
-1.43867e-14
3.25737e-14
-7.32161e-14
1.63357e-13
-3.6176e-13
7.95075e-13
-1.73403e-12
3.75248e-12
-8.05647e-12
1.71588e-11
-3.62487e-11
7.59465e-11
-1.5779e-10
3.25047e-10
-6.63823e-10
1.3438e-09
-2.69606e-09
5.36006e-09
-1.05581e-08
2.0602e-08
-3.98161e-08
7.62008e-08
-1.44387e-07
2.7082e-07
-5.02717e-07
9.23346e-07
-1.67766e-06
3.01464e-06
-5.35611e-06
9.40653e-06
-1.63249e-05
2.79888e-05
-4.73902e-05
7.92162e-05
-0.000130678
0.000212657
-0.000341245
0.00053971
-0.000840904
0.00129
-0.0019473
0.00289062
-0.00421651
0.00603905
-0.00848484
0.0116824
-0.0157445
0.0207415
-0.0266668
0.0333963
-0.0406456
0.0479362
-0.0545811
0.0597055
-0.0623168
0.0614333
-0.0562702
0.0464644
-0.0322989
0.0148674
0.00389254
-0.0213609
0.0346282
-0.0410943
0.0391722
-0.02892
0.0123751
0.00661222
-0.0231484
0.032581
-0.0319886
0.0213837
-0.00410232
-0.0139701
0.0262936
-0.0281437
0.0187156
-0.00185122
-0.0152083
0.0248127
-0.0224754
0.00932058
0.00805527
-0.0206322
0.0216718
-0.0106298
-0.00613173
0.0186928
-0.0194278
0.00793547
0.00830311
-0.0184845
0.015701
-0.00198704
-0.0127174
0.017549
-0.00891931
-0.00637509
0.0161193
-0.0124159
-0.00154569
0.013771
-0.0135978
0.00127274
0.0118644
-0.0135532
0.00226591
0.0109229
-0.0128965
0.00172687
0.0109456
-0.0117355
-0.00013959
0.0115772
-0.00978266
-0.00313628
0.0121229
-0.00655588
-0.00680551
0.0115377
-0.00174637
-0.0100869
0.00863781
0.00417727
-0.0111797
0.00281433
0.00933914
-0.00814446
-0.00472376
0.0105368
-0.000632934
-0.0101606
0.00533239
0.0076844
-0.00830484
-0.0046841
0.0103598
0.000551667
-0.0095062
0.00057667
0.0118263
-0.00707988
-0.004837
-0.000175555
0.0167015
-0.0186574
0.00813538
-0.0131144
0.03405
-0.0412826
0.0330218
-0.0401882
0.0629386
-0.0668226
0.0527798
-0.0556287
0.0672645
-0.050018
0.019934
-0.0147434
0.00911123
0.0258847
-0.0465861
0.031177
-0.0310435
0.0436047
-0.0131938
-0.0229503
0.0139463
-0.0207881
0.0503635
-0.0207804
-0.0159104
-0.00338538
-0.0188942
0.0548806
-0.00104673
-0.0111401
-0.0198626
-0.0494642
0.0354496
0.0378303
0.0388757
0.0260874
-0.075768
-0.0817252
-0.0692998
-0.00911427
0.171444
0.317951
0.493679
0.676025
0.764772
0.87066
0.939369
0.944223
0.990357
0.998006
0.980396
1.01109
1.00109
0.986094
1.01357
0.998723
0.988137
1.01355
0.997735
0.989077
1.0129
0.998273
0.989054
1.01174
1.00014
0.988423
1.00978
1.00314
0.987877
1.00656
1.00681
0.988462
1.00175
1.01009
0.991362
0.995822
1.01118
0.997185
0.990663
1.00814
1.00473
0.989454
1.00065
1.01013
0.994715
0.992236
1.00844
1.00447
0.989981
0.998909
1.01035
0.998133
0.990121
1.00419
1.00905
0.994137
0.991783
1.00697
1.00761
0.992373
0.992617
1.00789
1.00762
0.992252
0.991642
1.00712
1.00954
0.994195
0.989006
1.00355
1.01236
0.999876
0.986996
0.995476
1.01196
1.00992
0.991871
0.985315
1.00082
1.01634
1.0092
0.988207
0.981625
0.999397
1.02001
1.01736
0.992601
0.973263
0.982331
1.01299
1.03507
1.02465
0.987026
0.952849
0.953069
0.994545
1.0541
1.09235
1.07543
0.990421
0.847983
0.674114
0.498018
0.342459
0.219527
0.131327
0.0733481
0.0382281
0.018562
0.00836952
0.00348452
0.00132653
0.000453758
0.000134662
3.17541e-05
4.0531e-06
-1.17649e-06
-1.16774e-06
-5.59828e-07
-1.97987e-07
-5.32854e-08
-9.2419e-09
3.20367e-10
1.07863e-09
5.34285e-10
1.73283e-10
3.82616e-11
3.3194e-12
-1.77834e-12
-1.14473e-12
-3.89367e-13
-8.50586e-14
-6.8215e-15
3.83315e-15
2.25288e-15
6.87621e-16
1.23286e-16
2.44844e-19
-9.1458e-18
-3.81909e-18
-9.00863e-19
-9.08887e-20
2.73365e-20
1.71273e-20
4.80227e-21
6.90055e-22
-5.82153e-23
-6.74184e-23
-2.12944e-23
-3.50251e-24
7.627e-26
2.46723e-25
8.30802e-26
1.41816e-26
-7.16989e-29
-8.69901e-28
-2.92555e-28
-4.81684e-29
7.25663e-31
2.97938e-30
9.35781e-31
1.38135e-31
-7.03455e-33
-9.75172e-33
-2.69852e-33
-3.24702e-34
4.14862e-35
2.96508e-35
6.88242e-36
5.62634e-37
-1.79396e-37
-8.12955e-38
-1.50082e-38
-3.88712e-40
6.15984e-40
1.95179e-40
2.61504e-41
-1.8293e-42
-1.73258e-42
-3.95996e-43
-2.95829e-44
9.90253e-45
4.01417e-45
6.3785e-46
-7.15775e-48
-2.98283e-47
-7.53033e-48
-6.81534e-49
1.44647e-49
6.60137e-50
1.07894e-50
-9.0665e-54
-4.46987e-52
-1.11346e-52
-9.51765e-54
2.13007e-54
9.00935e-55
1.34822e-55
-2.7812e-57
-5.91384e-57
-1.30203e-57
-8.17599e-59
3.02473e-59
1.01517e-59
1.22562e-60
-9.41137e-62
-6.67348e-62
-1.17638e-62
-2.41903e-64
3.69275e-64
9.12393e-65
7.1782e-66
-1.6279e-66
-6.08565e-67
-7.63565e-68
4.40168e-69
3.5626e-69
6.14705e-70
1.09221e-71
-1.8275e-71
-4.21665e-72
-2.80406e-73
7.98619e-74
2.56923e-74
2.71308e-75
-2.69354e-76
-1.41524e-76
-2.01633e-77
3.8961e-79
7.08937e-79
1.29376e-79
3.79696e-81
-3.21812e-81
-7.4787e-82
-4.87293e-83
1.30207e-83
3.97476e-84
3.78245e-85
-4.48612e-86
-1.96364e-86
-2.415e-87
1.13065e-88
9.07099e-89
1.37077e-89
-3.04429e-92
-3.92819e-91
-7.14469e-92
-2.12639e-93
1.59393e-93
3.47829e-94
1.91354e-95
-6.03539e-96
-1.59796e-96
-1.22105e-97
2.11175e-98
6.97481e-99
6.66614e-100
-6.68448e-101
-2.90642e-101
-3.29923e-102
1.8196e-103
1.16039e-103
1.51947e-104
-3.61172e-106
-4.45125e-106
-6.60609e-107
1.79486e-110
1.64427e-108
2.7356e-109
4.99168e-111
-5.86005e-111
-1.08557e-111
-3.62448e-113
2.01824e-113
4.14655e-114
1.91152e-115
-6.72711e-116
-1.5297e-116
-8.71508e-118
2.1731e-118
5.46496e-119
3.6282e-120
-6.81303e-121
-1.89494e-121
-1.41366e-122
2.07616e-123
6.38908e-124
5.22461e-125
-6.15992e-126
-2.09802e-126
-1.84655e-127
1.78299e-128
6.71903e-129
6.27494e-130
-5.04695e-131
-2.10111e-131
-2.05797e-132
1.40115e-133
6.4222e-134
6.5319e-135
-3.82856e-136
-1.92043e-136
-2.01049e-137
1.03383e-138
5.6224e-139
6.01042e-140
-2.77103e-141
-1.61259e-141
-1.7473e-142
7.4047e-144
4.53342e-144
4.94409e-145
-1.98003e-146
-1.24967e-146
-1.36257e-147
5.31122e-149
3.37873e-149
3.65932e-150
-1.43014e-151
-8.96144e-152
-9.57963e-153
3.86111e-154
2.33186e-154
2.44499e-155
-1.04235e-156
-5.95289e-157
-6.08409e-158
2.80338e-159
1.4908e-159
1.47586e-160
-7.48158e-162
-3.66197e-162
-3.48904e-163
1.97383e-164
8.82122e-165
8.03475e-166
-5.13112e-167
-2.08331e-167
-1.80117e-168
1.31086e-169
4.82245e-170
3.92688e-171
-3.28444e-172
-1.09378e-172
-8.31571e-174
8.05884e-175
2.42988e-175
1.70749e-176
-1.93429e-177
-5.28529e-178
-3.39136e-179
4.53821e-180
1.12512e-180
6.49324e-182
-1.04024e-182
-2.34305e-183
-1.19237e-184
2.32877e-185
4.77086e-186
2.0834e-187
-5.09049e-188
-9.49301e-189
-3.41735e-190
1.08635e-190
1.84472e-191
5.12887e-193
-2.26313e-193
-3.49832e-194
-6.63877e-196
4.60196e-196
6.46871e-197
6.06403e-199
-9.13341e-199
-1.16507e-199
1.40798e-202
1.76905e-201
2.04127e-202
-2.66558e-204
-3.34357e-204
-3.47332e-205
9.23486e-207
6.16561e-207
5.72716e-208
-2.42883e-209
-1.10904e-209
-9.12413e-211
5.60822e-212
1.9454e-212
1.39848e-213
-1.19283e-214
-3.32661e-215
-2.04908e-216
2.38863e-217
5.54283e-218
2.84069e-219
-4.5566e-220
-8.99374e-221
-3.6583e-222
8.33863e-223
1.42002e-223
4.21381e-225
-1.47042e-225
-2.17949e-226
-3.92136e-228
2.50593e-228
3.2475e-229
1.7198e-231
-4.13566e-231
-4.68915e-232
4.16332e-234
6.61848e-234
6.54511e-235
-1.65021e-236
-1.028e-236
-8.80004e-238
3.93975e-239
1.55049e-239
1.13375e-240
-7.85949e-242
-2.27127e-242
-1.38808e-243
1.41728e-244
3.23106e-245
1.59232e-246
-2.38389e-247
-4.46184e-248
-1.6653e-249
3.79921e-250
5.97634e-251
1.48861e-252
-5.78788e-253
-7.75488e-254
-9.02291e-256
8.4745e-256
9.73054e-257
-2.95092e-259
-1.19666e-258
-1.17746e-259
2.33981e-261
1.63325e-261
1.36849e-262
-5.48793e-264
-2.15754e-264
-1.51807e-265
9.99085e-267
2.76064e-267
1.59067e-268
-1.6062e-269
-3.42219e-270
-1.54509e-271
2.38369e-272
4.1088e-273
1.33753e-274
-3.33307e-275
-4.77402e-276
-9.26154e-278
4.43995e-278
5.36002e-279
2.7667e-281
-5.67132e-281
-5.80132e-282
6.31651e-284
6.97456e-284
6.03052e-285
-1.80029e-286
-8.27896e-287
-5.98551e-288
3.20715e-289
9.49983e-290
5.61751e-291
-4.80448e-292
-1.05453e-292
-4.89865e-294
6.51973e-295
1.13249e-295
3.82819e-297
-8.25978e-298
-1.17598e-298
-2.43598e-300
9.91827e-301
1.17917e-301
7.82581e-304
-1.13853e-303
-1.13911e-304
1.04453e-306
1.25586e-306
1.05624e-307
-2.93823e-309
-1.33541e-309
-9.3445e-311
4.7818e-312
1.37154e-312
7.80842e-314
-6.46047e-315
-1.36201e-315
-6.02696e-317
7.04579e-318
)
;

boundaryField
{
    sides
    {
        type            zeroGradient;
    }
    empty
    {
        type            empty;
    }
}


// ************************************************************************* //
