/*--------------------------------*- C++ -*----------------------------------*\
| =========                 |                                                 |
| \\      /  F ield         | OpenFOAM: The Open Source CFD Toolbox           |
|  \\    /   O peration     | Version:  2312                                  |
|   \\  /    A nd           | Website:  www.openfoam.com                      |
|    \\/     M anipulation  |                                                 |
\*---------------------------------------------------------------------------*/
FoamFile
{
    version     2.0;
    format      ascii;
    arch        "LSB;label=32;scalar=64";
    class       volScalarField;
    location    "5";
    object      T;
}
// * * * * * * * * * * * * * * * * * * * * * * * * * * * * * * * * * * * * * //

dimensions      [0 0 0 1 0 0 0];

internalField   nonuniform List<scalar> 
1000
(
8.09495e-284
2.5902e-284
2.22944e-283
-7.23489e-283
3.52069e-282
-1.56626e-281
7.04485e-281
-3.14526e-280
1.39859e-279
-6.18982e-279
2.72682e-278
-1.19563e-277
5.21778e-277
-2.26622e-276
9.79556e-276
-4.21353e-275
1.80358e-274
-7.68201e-274
3.2557e-273
-1.37285e-272
5.75954e-272
-2.40391e-271
9.98132e-271
-4.12264e-270
1.69377e-269
-6.92149e-269
2.8131e-268
-1.13706e-267
4.57053e-267
-1.82686e-266
7.26051e-266
-2.86895e-265
1.12704e-264
-4.40132e-264
1.70851e-263
-6.59187e-263
2.52764e-262
-9.63163e-262
3.64686e-261
-1.37192e-260
5.12728e-260
-1.90345e-259
7.01852e-259
-2.57007e-258
9.34511e-258
-3.37369e-257
1.20905e-256
-4.30069e-256
1.51815e-255
-5.31745e-255
1.84766e-254
-6.36776e-254
2.17624e-253
-7.3737e-253
2.47638e-252
-8.24113e-252
2.71689e-251
-8.87024e-251
2.86702e-250
-9.17046e-250
2.90159e-249
-9.07744e-249
2.80635e-248
-8.56867e-248
2.58214e-247
-7.6736e-247
2.24681e-246
-6.4745e-246
1.83375e-245
-5.09636e-245
1.38699e-244
-3.68661e-244
9.53624e-244
-2.38875e-243
5.75222e-243
-1.31623e-242
2.80412e-242
-5.3323e-242
8.06022e-242
-4.771e-242
-3.00313e-241
1.8183e-240
-7.047e-240
2.2851e-239
-6.61323e-239
1.74198e-238
-4.17156e-238
8.88576e-238
-1.57556e-237
1.78557e-237
1.77304e-237
-2.04603e-236
8.72855e-236
-2.85716e-235
7.97083e-235
-1.93446e-234
3.98564e-234
-6.23326e-234
3.33373e-234
2.53268e-233
-1.41812e-232
5.02027e-232
-1.42725e-231
3.38923e-231
-6.46102e-231
7.84775e-231
5.95431e-231
-7.91082e-230
3.26545e-229
-9.86174e-229
2.39193e-228
-4.50191e-228
4.91589e-228
7.03943e-228
-6.40617e-227
2.44001e-226
-6.83239e-226
1.48358e-225
-2.20462e-225
2.03444e-226
1.34297e-224
-6.10085e-224
1.83108e-223
-4.12938e-223
6.31092e-223
-9.48189e-224
-3.67138e-222
1.66316e-221
-4.85995e-221
1.03263e-220
-1.32559e-220
-9.5058e-221
1.26293e-219
-4.79516e-219
1.23365e-218
-2.16409e-218
1.24798e-218
8.62562e-218
-4.43618e-217
1.31026e-216
-2.64296e-216
2.63885e-216
5.93768e-216
-4.1501e-215
1.33595e-214
-2.85369e-214
3.19307e-214
5.12891e-214
-4.12728e-213
1.35168e-212
-2.85196e-212
2.92568e-212
6.34215e-212
-4.40253e-211
1.35833e-210
-2.62301e-210
1.81462e-210
9.42097e-210
-4.86528e-209
1.31772e-208
-2.09105e-208
-1.50364e-209
1.37743e-207
-5.24839e-207
1.16139e-206
-1.17114e-206
-2.80749e-206
1.81004e-205
-5.13784e-205
8.16208e-205
1.31386e-205
-5.60956e-204
2.02656e-203
-4.08219e-203
2.56904e-203
1.59449e-202
-7.51321e-202
1.78008e-201
-1.86743e-201
-4.23957e-201
2.71101e-200
-7.23173e-200
9.38167e-200
1.10034e-199
-9.78278e-199
2.82705e-198
-4.04296e-198
-3.10546e-198
3.60272e-197
-1.08139e-196
1.58253e-196
1.12283e-196
-1.36844e-195
4.07259e-195
-5.69923e-195
-5.36699e-195
5.35181e-194
-1.50548e-193
1.85709e-193
2.91619e-193
-2.12695e-192
5.39577e-192
-5.13071e-192
-1.58105e-191
8.41216e-191
-1.83096e-190
9.29606e-191
8.09807e-190
-3.22666e-189
5.62758e-189
1.28885e-189
-3.83916e-188
1.16286e-187
-1.41409e-187
-2.51763e-187
1.661e-186
-3.7587e-186
1.85642e-186
1.68683e-185
-6.42101e-185
9.90668e-185
7.86448e-185
-8.41105e-184
2.12514e-183
-1.47689e-183
-8.25388e-183
3.40548e-182
-5.38989e-182
-4.12591e-182
4.47361e-181
-1.0945e-180
5.90798e-181
4.78897e-180
-1.77067e-179
2.35921e-179
3.64149e-179
-2.4703e-178
5.01584e-178
1.79506e-179
-3.03491e-177
8.60317e-177
-6.55774e-177
-3.23949e-176
1.30598e-175
-1.76169e-175
-2.78797e-175
1.82057e-174
-3.41324e-174
-1.30635e-174
2.37378e-173
-5.73717e-173
1.66985e-173
2.92365e-172
-8.88449e-172
6.71791e-172
3.41865e-171
-1.30508e-170
1.4564e-170
3.80205e-170
-1.85098e-169
2.6136e-169
4.02018e-169
-2.56654e-168
4.26351e-168
4.038e-168
-3.51312e-167
6.56208e-167
3.86772e-167
-4.78461e-166
9.70965e-166
3.62021e-166
-6.52397e-165
1.39559e-164
3.59442e-165
-8.94566e-164
1.95942e-163
4.42685e-164
-1.23642e-162
2.6931e-162
7.33091e-163
-1.72266e-161
3.62078e-161
1.44605e-161
-2.41406e-160
4.74376e-160
2.94268e-160
-3.38819e-159
6.01016e-159
5.79689e-159
-4.73458e-158
7.2637e-158
1.08701e-157
-6.53839e-157
8.16471e-157
1.93706e-156
-8.84375e-156
8.0802e-156
3.28468e-155
-1.15848e-154
5.95182e-155
5.30233e-154
-1.44725e-153
1.75752e-155
8.13385e-153
-1.68316e-152
-1.14268e-152
1.18e-151
-1.74023e-151
-3.14061e-151
1.60388e-150
-1.41659e-150
-6.20321e-150
2.00772e-149
-4.32027e-150
-1.03943e-148
2.23691e-148
1.53707e-148
-1.53915e-147
2.04061e-147
4.75573e-147
-2.01887e-146
1.08115e-146
9.23293e-146
-2.28072e-145
-9.96516e-146
1.44254e-144
-2.02058e-144
-4.40063e-144
1.89036e-143
-8.70772e-144
-8.91861e-143
2.01502e-142
1.46803e-142
-1.35774e-141
1.4796e-141
4.98381e-141
-1.639e-140
-3.29608e-142
9.0325e-140
-1.44745e-139
-2.60882e-139
1.20769e-138
-4.90693e-139
-5.81485e-138
1.17505e-137
1.34614e-137
-8.45997e-137
5.57758e-137
3.75054e-136
-8.64998e-136
-7.46437e-136
5.78542e-135
-4.42395e-135
-2.48582e-134
5.96469e-134
4.90812e-134
-3.9097e-133
2.83602e-133
1.71006e-132
-3.87991e-132
-3.89057e-132
2.60871e-131
-1.41087e-131
-1.2102e-130
2.34803e-130
3.41005e-130
-1.69506e-129
3.48792e-130
8.59804e-129
-1.2652e-128
-3.00429e-128
1.04276e-127
3.25386e-128
-5.92858e-127
5.35669e-127
2.50822e-126
-5.77162e-126
-6.58179e-126
3.80444e-125
-8.39593e-126
-1.91256e-124
2.56521e-124
7.25354e-124
-2.13688e-123
-1.51761e-123
1.28305e-122
-5.5055e-123
-6.15272e-122
9.19168e-122
2.28687e-121
-7.09339e-121
-4.92206e-121
4.18097e-120
-1.47078e-120
-2.03651e-119
2.68182e-119
8.09048e-119
-2.13434e-118
-2.2641e-118
1.30817e-117
1.92161e-119
-6.78228e-117
5.71521e-117
3.01782e-116
-5.4623e-116
-1.10611e-115
3.70685e-115
2.73144e-115
-2.11886e-114
2.37425e-115
1.06832e-113
-9.22644e-114
-4.78618e-113
8.19159e-113
1.85959e-112
-5.4855e-112
-5.6928e-112
3.17971e-111
7.7698e-112
-1.66698e-110
6.76932e-111
8.02894e-110
-8.40054e-110
-3.55473e-109
6.36491e-109
1.42472e-108
-4.02723e-108
-4.92998e-108
2.29894e-107
1.24853e-107
-1.2213e-106
-1.15502e-109
6.12861e-106
-2.99058e-106
-2.92628e-105
2.85776e-105
1.33281e-104
-2.01554e-104
-5.78071e-104
1.246e-103
2.37084e-103
-7.13141e-103
-9.04562e-103
3.8746e-102
3.09126e-102
-2.02627e-101
-8.48405e-102
1.02891e-100
9.72327e-102
-5.10374e-100
9.96811e-101
2.48428e-99
-1.15037e-99
-1.19095e-98
8.53132e-99
5.64053e-98
-5.41285e-98
-2.64666e-97
3.16284e-97
1.23362e-96
-1.7549e-96
-5.72656e-96
9.39293e-96
2.65427e-95
-4.89486e-95
-1.23147e-94
2.49808e-94
5.73295e-94
-1.25335e-93
-2.68385e-93
6.19797e-93
1.26579e-92
-3.0258e-92
-6.02232e-92
1.45959e-91
2.89238e-91
-6.9587e-91
-1.40223e-90
3.27771e-90
6.85678e-90
-1.52374e-89
-3.37716e-89
6.97866e-89
1.67219e-88
-3.14007e-88
-8.30503e-88
1.38227e-87
4.12714e-87
-5.91499e-87
-2.04689e-86
2.43543e-86
1.0105e-85
-9.47777e-86
-4.95245e-85
3.36369e-85
2.40293e-84
-9.9311e-85
-1.15085e-83
1.58522e-84
5.42256e-83
8.26331e-84
-2.50374e-82
-1.16526e-82
1.12721e-81
9.18551e-82
-4.91462e-81
-6.01473e-81
2.05435e-80
3.56306e-80
-8.09778e-80
-1.97059e-79
2.91699e-79
1.03149e-78
-8.91042e-79
-5.13787e-78
1.72785e-78
2.43614e-77
3.83557e-78
-1.09499e-76
-7.2788e-77
4.61942e-76
5.75257e-76
-1.79241e-75
-3.60058e-75
6.11706e-75
1.98297e-74
-1.61302e-74
-9.93054e-74
1.26763e-74
4.55998e-73
2.29585e-73
-1.90604e-72
-2.2737e-72
7.0542e-72
1.49518e-71
-2.13642e-71
-8.17797e-71
3.76387e-71
3.921e-70
1.18319e-70
-1.65831e-69
-1.77342e-69
6.01243e-69
1.25238e-68
-1.68014e-68
-6.8808e-68
1.86678e-68
3.19023e-67
1.82548e-67
-1.25111e-66
-1.86926e-66
3.88059e-66
1.15935e-65
-6.73071e-66
-5.67607e-65
-2.2127e-65
2.27366e-64
3.07922e-64
-6.99843e-64
-2.00503e-63
1.10678e-63
9.77194e-63
4.83738e-63
-3.74384e-62
-5.86131e-62
1.01775e-61
3.57264e-61
-6.60354e-62
-1.60428e-60
-1.42148e-60
5.34762e-60
1.18827e-59
-9.83227e-60
-6.15897e-59
-2.69303e-59
2.3173e-58
3.78522e-58
-5.48072e-58
-2.24097e-57
-3.07373e-58
9.10891e-57
1.21758e-56
-2.37237e-56
-8.01051e-56
1.43866e-57
3.38053e-55
4.16133e-55
-8.90943e-55
-2.87157e-54
3.93377e-56
1.2021e-53
1.55021e-53
-2.9597e-53
-1.03559e-52
-1.5655e-53
4.07538e-52
6.17905e-52
-8.36449e-52
-3.69991e-51
-1.70045e-51
1.28212e-50
2.5074e-50
-1.68664e-50
-1.26748e-49
-1.14105e-49
3.5101e-49
9.79094e-49
1.77989e-50
-3.94932e-48
-5.98677e-48
6.95852e-48
3.47713e-47
2.51073e-47
-1.01453e-46
-2.58408e-46
3.99974e-48
1.04292e-45
1.63525e-45
-1.56429e-45
-9.03973e-45
-8.36567e-45
2.23805e-44
6.98764e-44
2.62993e-44
-2.33231e-43
-4.93181e-43
9.29335e-44
2.10157e-42
3.20763e-42
-2.77132e-42
-1.73572e-41
-1.92087e-41
3.44091e-41
1.35332e-40
1.04572e-40
-3.41135e-40
-1.01521e-39
-4.9956e-40
3.02909e-39
7.43372e-39
1.89117e-39
-2.51663e-38
-5.37826e-38
-3.32295e-39
1.99952e-37
3.88523e-37
-2.95385e-38
-1.53775e-36
-2.82596e-36
4.14166e-37
1.15203e-35
2.08058e-35
-2.92327e-36
-8.42466e-35
-1.55239e-34
8.80189e-36
6.00179e-34
1.17009e-33
1.13208e-34
-4.13829e-33
-8.84556e-33
-2.70711e-33
2.72688e-32
6.63826e-32
3.70214e-32
-1.67766e-31
-4.88279e-31
-4.12234e-31
9.1901e-31
3.46602e-30
4.05206e-30
-3.94098e-30
-2.32662e-29
-3.61446e-29
5.62918e-30
1.4319e-28
2.94655e-28
1.34825e-28
-7.61104e-28
-2.18178e-27
-2.16023e-27
2.94242e-27
1.43636e-26
2.21366e-26
-5.67885e-28
-7.98318e-26
-1.817e-25
-1.37948e-25
3.20289e-25
1.23198e-24
1.76042e-24
-1.75318e-25
-6.56642e-24
-1.49612e-23
-1.27828e-23
2.13723e-23
9.56071e-23
1.56685e-22
4.96981e-23
-4.18274e-22
-1.19174e-21
-1.48866e-21
4.08434e-22
6.0842e-21
1.37052e-20
1.34925e-20
-1.26521e-20
-7.73249e-20
-1.52259e-19
-1.25376e-19
1.91981e-19
9.08756e-19
1.68551e-18
1.30658e-18
-2.22471e-18
-1.00847e-17
-1.88574e-17
-1.59658e-17
2.01542e-17
1.05266e-16
2.11733e-16
2.17309e-16
-1.1099e-16
-1.00034e-15
-2.3176e-15
-2.99784e-15
-6.26804e-16
7.91635e-15
2.34863e-14
3.87201e-14
3.11495e-14
-3.73129e-14
-2.01112e-13
-4.3769e-13
-5.80731e-13
-2.43335e-13
1.1348e-12
3.93324e-12
7.52173e-12
9.02028e-12
2.29642e-12
-2.12196e-11
-6.74038e-11
-1.2756e-10
-1.6003e-10
-7.26135e-11
2.74715e-10
1.01296e-09
2.11224e-09
3.11225e-09
2.78117e-09
-1.10951e-09
-1.14935e-08
-3.05728e-08
-5.6518e-08
-7.79041e-08
-6.65926e-08
2.79633e-08
2.76401e-07
7.48015e-07
1.45515e-06
2.24793e-06
2.65195e-06
1.66426e-06
-2.43197e-06
-1.21009e-05
-3.01998e-05
-5.88759e-05
-9.72197e-05
-0.000137076
-0.00015637
-0.000109406
8.61804e-05
0.000565621
0.00153554
0.00329313
0.0062433
0.0109105
0.0179412
0.0280931
0.0422076
0.0611643
0.085817
0.116915
0.155016
0.200397
0.252981
0.312277
0.377362
0.446894
0.519169
0.592227
0.663978
0.732355
0.79547
0.851755
0.900076
0.939803
0.970828
0.993537
1.00874
1.01754
1.02125
1.02122
1.01874
1.01493
1.0107
1.00672
1.00338
1.00089
0.999268
0.998404
0.998135
0.998267
0.998623
0.999058
0.999468
0.999797
1.00002
1.00014
1.00019
1.00018
1.00014
1.00009
1.00004
1.00001
0.99999
0.999981
0.99998
0.999984
0.99999
0.999995
0.999999
1
1
1
1
1
1
1
1
1
1
1
1
1
1
1
1
1
1
1
1
1
1
1
1
1
1
0.999999
0.999999
0.999998
0.999997
0.999998
1
1.00001
1.00003
1.00006
1.0001
1.00014
1.00016
1.00011
0.999914
0.999434
0.998464
0.996707
0.993757
0.989089
0.982059
0.971907
0.957792
0.938836
0.914183
0.883085
0.844984
0.799603
0.747019
0.687723
0.622638
0.553106
0.480831
0.407773
0.336022
0.267645
0.20453
0.148245
0.0999237
0.0601969
0.029172
0.00646252
-0.00873691
-0.0175424
-0.0212534
-0.0212226
-0.018738
-0.0149285
-0.0107021
-0.00671653
-0.00338292
-0.000893667
0.000732128
0.00159557
0.00186545
0.00173281
0.00137663
0.000942216
0.000531516
0.000203213
-2.05802e-05
-0.00014417
-0.000187476
-0.000176548
-0.000136572
-8.76622e-05
-4.31911e-05
-1.00128e-05
1.01709e-05
1.89996e-05
1.97194e-05
1.58381e-05
1.02846e-05
5.04059e-06
1.12932e-06
-1.1853e-06
-2.11944e-06
-2.10543e-06
-1.59522e-06
-9.46718e-07
-3.82812e-07
-6.74406e-10
1.93151e-07
2.41861e-07
2.04217e-07
1.32423e-07
6.20149e-08
1.07643e-08
-1.73342e-08
-2.64011e-08
-2.36036e-08
-1.57326e-08
-7.54965e-09
-1.49473e-09
1.82528e-09
2.88305e-09
2.55136e-09
1.65137e-09
7.43377e-10
9.85721e-11
-2.30996e-10
-3.14133e-10
-2.5712e-10
-1.52263e-10
-5.73632e-11
3.67106e-12
3.01978e-11
3.26567e-11
2.33952e-11
1.17694e-11
2.79731e-12
-2.09301e-12
-3.57252e-12
-3.0507e-12
-1.81336e-12
-6.69593e-13
5.21759e-14
3.47345e-13
3.57004e-13
2.3942e-13
1.06946e-13
1.35438e-14
-3.08381e-14
-3.88578e-14
-2.86003e-14
-1.41986e-14
-3.13481e-15
2.59478e-15
4.04306e-15
3.18433e-15
1.67628e-15
4.46428e-16
-2.20126e-16
-4.10789e-16
-3.36306e-16
-1.812e-16
-5.10137e-17
2.04202e-17
4.13093e-17
3.39954e-17
1.84109e-17
2.30902e-18
)
;

boundaryField
{
    sides
    {
        type            zeroGradient;
    }
    empty
    {
        type            empty;
    }
}


// ************************************************************************* //
