/*--------------------------------*- C++ -*----------------------------------*\
| =========                 |                                                 |
| \\      /  F ield         | OpenFOAM: The Open Source CFD Toolbox           |
|  \\    /   O peration     | Version:  2312                                  |
|   \\  /    A nd           | Website:  www.openfoam.com                      |
|    \\/     M anipulation  |                                                 |
\*---------------------------------------------------------------------------*/
FoamFile
{
    version     2.0;
    format      ascii;
    arch        "LSB;label=32;scalar=64";
    class       volScalarField;
    location    "1.4";
    object      T;
}
// * * * * * * * * * * * * * * * * * * * * * * * * * * * * * * * * * * * * * //

dimensions      [0 0 0 1 0 0 0];

internalField   nonuniform List<scalar> 
1000
(
4.21404e-176
1.45626e-175
6.16099e-175
2.63518e-174
1.12613e-173
4.80517e-173
2.04715e-172
8.70786e-172
3.6982e-171
1.56815e-170
6.63891e-170
2.80621e-169
1.18428e-168
4.98998e-168
2.09919e-167
8.81677e-167
3.69719e-166
1.54788e-165
6.46998e-165
2.70003e-164
1.12494e-163
4.67938e-163
1.9433e-162
8.05721e-162
3.33517e-161
1.37829e-160
5.68656e-160
2.34231e-159
9.63209e-159
3.95438e-158
1.62075e-157
6.63178e-157
2.70907e-156
1.1048e-155
4.49801e-155
1.82821e-154
7.41823e-154
3.00497e-153
1.21519e-152
4.90582e-152
1.97715e-151
7.95473e-151
3.19498e-150
1.28105e-149
5.12762e-149
2.04888e-148
8.17272e-148
3.25434e-147
1.29361e-146
5.13321e-146
2.03336e-145
8.04043e-145
3.17381e-144
1.2506e-143
4.91911e-143
1.93146e-142
7.57035e-142
2.96191e-141
1.15678e-140
4.50978e-140
1.75501e-139
6.81743e-139
2.6435e-138
1.02318e-137
3.95309e-137
1.52452e-136
5.86861e-136
2.25499e-135
8.64882e-135
3.31109e-134
1.26527e-133
4.82608e-133
1.83738e-132
6.9823e-132
2.64842e-131
1.00268e-130
3.78903e-130
1.42914e-129
5.38027e-129
2.02168e-128
7.58226e-128
2.83831e-127
1.06046e-126
3.95454e-126
1.47187e-125
5.46771e-125
2.02725e-124
7.50186e-124
2.7707e-123
1.02133e-122
3.7575e-122
1.37969e-121
5.05609e-121
1.84924e-120
6.75023e-120
2.45915e-119
8.94111e-119
3.2444e-118
1.17493e-117
4.24643e-117
1.53167e-116
5.51358e-116
1.98074e-115
7.10139e-115
2.54085e-114
9.07263e-114
3.23297e-113
1.1497e-112
4.08013e-112
1.44502e-111
5.10713e-111
1.80128e-110
6.33998e-110
2.22685e-109
7.80526e-109
2.73009e-108
9.52916e-108
3.31909e-107
1.15363e-106
4.00127e-106
1.38486e-105
4.78289e-105
1.64834e-104
5.6686e-104
1.94523e-103
6.66088e-103
2.27591e-102
7.75956e-102
2.63983e-101
8.96126e-101
3.03538e-100
1.0259e-99
3.45974e-99
1.16419e-98
3.90881e-98
1.30949e-97
4.37716e-97
1.45987e-96
4.85809e-96
1.61303e-95
5.34367e-95
1.76627e-94
5.82495e-94
1.91664e-93
6.29214e-93
2.06094e-92
6.73496e-92
2.19587e-91
7.14296e-91
2.31817e-90
7.5059e-90
2.42466e-89
7.81421e-89
2.51248e-88
8.05935e-88
2.57913e-87
8.23421e-87
2.62265e-86
8.33349e-86
2.64166e-85
8.35388e-85
2.63547e-84
8.29433e-84
2.60409e-83
8.15604e-83
2.54828e-82
7.94249e-82
2.46947e-81
7.65926e-81
2.36974e-80
7.31381e-80
2.2517e-79
6.91512e-79
2.11839e-78
6.47333e-78
1.97315e-77
5.99931e-77
1.81948e-76
5.50417e-76
1.66087e-75
4.99888e-75
1.50072e-74
4.49381e-74
1.34218e-73
3.99843e-73
1.18807e-72
3.52103e-72
1.04079e-71
3.06849e-71
9.02292e-71
2.64623e-70
7.74037e-70
2.25812e-69
6.5702e-69
1.90657e-68
5.51783e-68
1.59264e-67
4.5846e-67
1.31617e-66
3.76831e-66
1.07597e-65
3.06389e-65
8.70077e-65
2.46406e-64
6.95904e-64
1.95997e-63
5.50485e-63
1.54183e-62
4.3064e-62
1.19944e-61
3.33138e-61
9.22672e-61
2.54826e-60
7.01792e-60
1.92725e-59
5.27752e-59
1.44104e-58
3.92354e-58
1.06519e-57
2.88351e-57
7.78315e-57
2.09472e-56
5.62118e-56
1.50403e-55
4.01245e-55
1.06729e-54
2.83053e-54
7.48455e-54
1.97319e-53
5.1865e-53
1.35918e-52
3.55118e-52
9.25032e-52
2.40229e-51
6.21976e-51
1.60545e-50
4.13136e-50
1.05987e-49
2.71067e-49
6.91126e-49
1.75667e-48
4.45115e-48
1.12434e-47
2.83114e-47
7.10657e-47
1.77823e-46
4.4355e-46
1.10285e-45
2.73342e-45
6.75317e-45
1.66309e-44
4.08248e-44
9.98919e-44
2.43629e-43
5.92261e-43
1.4351e-42
3.46598e-42
8.34342e-42
2.00184e-41
4.78716e-41
1.141e-40
2.71047e-40
6.4173e-40
1.51427e-39
3.56117e-39
8.34671e-39
1.94969e-38
4.53879e-38
1.05301e-37
2.43465e-37
5.60983e-37
1.28815e-36
2.94767e-36
6.72178e-36
1.52749e-35
3.45902e-35
7.80559e-35
1.75521e-34
3.93297e-34
8.78159e-34
1.95381e-33
4.33153e-33
9.56854e-33
2.10616e-32
4.61924e-32
1.00944e-31
2.19793e-31
4.76833e-31
1.0307e-30
2.21976e-30
4.76303e-30
1.01826e-29
2.16882e-29
4.60232e-29
9.72994e-29
2.04937e-28
4.3003e-28
8.98963e-28
1.87217e-27
3.88419e-27
8.02795e-27
1.65292e-26
3.39027e-26
6.92707e-26
1.40991e-25
2.85858e-25
5.77333e-25
1.16148e-24
2.32755e-24
4.64605e-24
9.23766e-24
1.82947e-23
3.60887e-23
7.09076e-23
1.38766e-22
2.70481e-22
5.2511e-22
1.01535e-21
1.95537e-21
3.75044e-21
7.16428e-21
1.36299e-20
2.58248e-20
4.87304e-20
9.1575e-20
1.7138e-19
3.19409e-19
5.92828e-19
1.09572e-18
2.01678e-18
3.69654e-18
6.74694e-18
1.22627e-17
2.21935e-17
3.99967e-17
7.17751e-17
1.28253e-16
2.28194e-16
4.04272e-16
7.13135e-16
1.25255e-15
2.19045e-15
3.81405e-15
6.6122e-15
1.14132e-14
1.96139e-14
3.35593e-14
5.71671e-14
9.69526e-14
1.63699e-13
2.75172e-13
4.60496e-13
7.67195e-13
1.27245e-12
2.10098e-12
3.4534e-12
5.6508e-12
9.20462e-12
1.49255e-11
2.40923e-11
3.87117e-11
6.19186e-11
9.85843e-11
1.56242e-10
2.46483e-10
3.87052e-10
6.0498e-10
9.41235e-10
1.45759e-09
2.24671e-09
3.44692e-09
5.26359e-09
8.0001e-09
1.21023e-08
1.82219e-08
2.73068e-08
4.0728e-08
6.04587e-08
8.93229e-08
1.31341e-07
1.92208e-07
2.79943e-07
4.05782e-07
5.85377e-07
8.40422e-07
1.20081e-06
1.7075e-06
2.41634e-06
3.403e-06
4.76946e-06
6.65239e-06
9.23389e-06
1.27552e-05
1.75342e-05
2.39872e-05
3.26559e-05
4.42419e-05
5.96478e-05
8.00281e-05
0.00010685
0.00014197
0.000187716
0.000246996
0.000323417
0.000421426
0.000546467
0.000705168
0.000905541
0.00115721
0.00147164
0.00186245
0.00234564
0.0029399
0.00366692
0.00455169
0.00562274
0.00691246
0.00845726
0.0102978
0.0124791
0.0150505
0.0180656
0.0215822
0.0256619
0.0303696
0.0357728
0.0419414
0.0489459
0.0568571
0.0657444
0.0756747
0.0867108
0.09891
0.112322
0.126989
0.142941
0.160197
0.178764
0.198633
0.219781
0.242169
0.26574
0.290424
0.316134
0.342766
0.370206
0.398324
0.426982
0.45603
0.485317
0.514683
0.54397
0.573018
0.601676
0.629794
0.657234
0.683866
0.709576
0.73426
0.757831
0.780219
0.801367
0.821236
0.839803
0.857059
0.873011
0.887678
0.90109
0.913289
0.924325
0.934256
0.943143
0.951054
0.958059
0.964227
0.96963
0.974338
0.978418
0.981934
0.984949
0.987521
0.989702
0.991542
0.993087
0.994376
0.995447
0.996331
0.997058
0.997651
0.998133
0.998522
0.998834
0.999082
0.999277
0.99943
0.999546
0.999632
0.999693
0.999732
0.999751
0.999751
0.999732
0.999693
0.999632
0.999546
0.99943
0.999277
0.999082
0.998834
0.998522
0.998133
0.997651
0.997058
0.996331
0.995447
0.994376
0.993087
0.991542
0.989702
0.987521
0.984949
0.981934
0.978418
0.974338
0.96963
0.964227
0.958059
0.951054
0.943143
0.934256
0.924325
0.913289
0.90109
0.887678
0.873011
0.857059
0.839803
0.821236
0.801367
0.780219
0.757831
0.73426
0.709576
0.683866
0.657234
0.629794
0.601676
0.573018
0.54397
0.514683
0.485317
0.45603
0.426982
0.398324
0.370206
0.342766
0.316134
0.290424
0.26574
0.242169
0.219781
0.198633
0.178764
0.160197
0.142941
0.126989
0.112322
0.09891
0.0867108
0.0756747
0.0657444
0.0568571
0.0489459
0.0419414
0.0357728
0.0303696
0.0256619
0.0215822
0.0180656
0.0150505
0.0124791
0.0102978
0.00845726
0.00691246
0.00562274
0.00455169
0.00366692
0.0029399
0.00234564
0.00186245
0.00147164
0.00115721
0.000905541
0.000705168
0.000546467
0.000421426
0.000323417
0.000246996
0.000187716
0.00014197
0.00010685
8.00281e-05
5.96478e-05
4.42419e-05
3.26559e-05
2.39872e-05
1.75342e-05
1.27552e-05
9.23389e-06
6.65239e-06
4.76946e-06
3.403e-06
2.41634e-06
1.7075e-06
1.20081e-06
8.40422e-07
5.85377e-07
4.05782e-07
2.79943e-07
1.92208e-07
1.31341e-07
8.93229e-08
6.04587e-08
4.0728e-08
2.73068e-08
1.82219e-08
1.21023e-08
8.0001e-09
5.26359e-09
3.44692e-09
2.24671e-09
1.45759e-09
9.41235e-10
6.0498e-10
3.87052e-10
2.46483e-10
1.56242e-10
9.85843e-11
6.19186e-11
3.87117e-11
2.40923e-11
1.49255e-11
9.20462e-12
5.6508e-12
3.4534e-12
2.10098e-12
1.27245e-12
7.67195e-13
4.60496e-13
2.75172e-13
1.63699e-13
9.69526e-14
5.71671e-14
3.35593e-14
1.96139e-14
1.14132e-14
6.6122e-15
3.81405e-15
2.19045e-15
1.25255e-15
7.13135e-16
4.04272e-16
2.28194e-16
1.28253e-16
7.17751e-17
3.99967e-17
2.21935e-17
1.22627e-17
6.74694e-18
3.69654e-18
2.01678e-18
1.09572e-18
5.92828e-19
3.19409e-19
1.7138e-19
9.1575e-20
4.87304e-20
2.58248e-20
1.36299e-20
7.16428e-21
3.75044e-21
1.95537e-21
1.01535e-21
5.2511e-22
2.70481e-22
1.38766e-22
7.09076e-23
3.60887e-23
1.82947e-23
9.23766e-24
4.64605e-24
2.32755e-24
1.16148e-24
5.77333e-25
2.85858e-25
1.40991e-25
6.92707e-26
3.39027e-26
1.65292e-26
8.02795e-27
3.88419e-27
1.87217e-27
8.98963e-28
4.3003e-28
2.04937e-28
9.72994e-29
4.60232e-29
2.16882e-29
1.01826e-29
4.76303e-30
2.21976e-30
1.0307e-30
4.76833e-31
2.19793e-31
1.00944e-31
4.61924e-32
2.10616e-32
9.56854e-33
4.33153e-33
1.95381e-33
8.78159e-34
3.93297e-34
1.75521e-34
7.80559e-35
3.45902e-35
1.52749e-35
6.72178e-36
2.94767e-36
1.28815e-36
5.60983e-37
2.43465e-37
1.05301e-37
4.53879e-38
1.94969e-38
8.34671e-39
3.56117e-39
1.51427e-39
6.4173e-40
2.71047e-40
1.141e-40
4.78716e-41
2.00184e-41
8.34342e-42
3.46598e-42
1.4351e-42
5.92261e-43
2.43629e-43
9.98919e-44
4.08248e-44
1.66309e-44
6.75317e-45
2.73342e-45
1.10285e-45
4.4355e-46
1.77823e-46
7.10657e-47
2.83114e-47
1.12434e-47
4.45115e-48
1.75667e-48
6.91126e-49
2.71067e-49
1.05987e-49
4.13136e-50
1.60545e-50
6.21976e-51
2.40229e-51
9.25032e-52
3.55118e-52
1.35918e-52
5.1865e-53
1.97319e-53
7.48455e-54
2.83053e-54
1.06729e-54
4.01245e-55
1.50403e-55
5.62118e-56
2.09472e-56
7.78315e-57
2.88351e-57
1.06519e-57
3.92354e-58
1.44104e-58
5.27752e-59
1.92725e-59
7.01792e-60
2.54826e-60
9.22672e-61
3.33138e-61
1.19944e-61
4.3064e-62
1.54183e-62
5.50485e-63
1.95997e-63
6.95904e-64
2.46406e-64
8.70077e-65
3.06389e-65
1.07597e-65
3.76831e-66
1.31617e-66
4.5846e-67
1.59264e-67
5.51783e-68
1.90657e-68
6.5702e-69
2.25812e-69
7.74037e-70
2.64623e-70
9.02292e-71
3.06849e-71
1.04079e-71
3.52103e-72
1.18807e-72
3.99843e-73
1.34218e-73
4.49381e-74
1.50072e-74
4.99888e-75
1.66087e-75
5.50417e-76
1.81948e-76
5.99931e-77
1.97315e-77
6.47333e-78
2.11839e-78
6.91512e-79
2.2517e-79
7.31381e-80
2.36974e-80
7.65926e-81
2.46947e-81
7.94249e-82
2.54828e-82
8.15604e-83
2.60409e-83
8.29433e-84
2.63547e-84
8.35388e-85
2.64166e-85
8.33349e-86
2.62265e-86
8.23421e-87
2.57913e-87
8.05935e-88
2.51248e-88
7.81421e-89
2.42466e-89
7.5059e-90
2.31817e-90
7.14296e-91
2.19587e-91
6.73496e-92
2.06094e-92
6.29214e-93
1.91664e-93
5.82495e-94
1.76627e-94
5.34367e-95
1.61303e-95
4.85809e-96
1.45987e-96
4.37716e-97
1.30949e-97
3.90881e-98
1.16419e-98
3.45974e-99
1.0259e-99
3.03538e-100
8.96126e-101
2.63983e-101
7.75956e-102
2.27591e-102
6.66088e-103
1.94523e-103
5.6686e-104
1.64834e-104
4.78289e-105
1.38486e-105
4.00127e-106
1.15363e-106
3.31909e-107
9.52916e-108
2.73009e-108
7.80526e-109
2.22685e-109
6.33998e-110
1.80128e-110
5.10713e-111
1.44502e-111
4.08013e-112
1.1497e-112
3.23297e-113
9.07263e-114
2.54085e-114
7.10139e-115
1.98074e-115
5.51358e-116
1.53167e-116
4.24643e-117
1.17493e-117
3.2444e-118
8.94111e-119
2.45915e-119
6.75023e-120
1.84924e-120
5.05609e-121
1.37969e-121
3.7575e-122
1.02133e-122
2.7707e-123
7.50186e-124
2.02725e-124
5.46771e-125
1.47187e-125
3.95454e-126
1.06046e-126
2.83831e-127
7.58226e-128
2.02168e-128
5.38027e-129
1.42914e-129
3.78903e-130
1.00268e-130
2.64842e-131
6.9823e-132
1.83738e-132
4.82608e-133
1.26527e-133
3.31109e-134
8.64882e-135
2.25499e-135
5.86861e-136
1.52452e-136
3.95309e-137
1.02318e-137
2.6435e-138
6.81743e-139
1.75501e-139
4.50978e-140
1.15678e-140
2.96191e-141
7.57035e-142
1.93146e-142
4.91911e-143
1.2506e-143
3.17381e-144
8.04043e-145
2.03336e-145
5.13321e-146
1.29361e-146
3.25434e-147
8.17272e-148
2.04888e-148
5.12762e-149
1.28105e-149
3.19498e-150
7.95473e-151
1.97715e-151
4.90582e-152
1.21519e-152
3.00497e-153
7.41823e-154
1.82821e-154
4.49801e-155
1.1048e-155
2.70907e-156
6.63178e-157
1.62075e-157
3.95438e-158
9.63209e-159
2.34231e-159
5.68656e-160
1.37829e-160
3.33517e-161
8.05721e-162
1.9433e-162
4.67938e-163
1.12494e-163
2.70003e-164
6.46998e-165
1.54788e-165
3.69719e-166
8.81677e-167
2.09919e-167
4.98998e-168
1.18428e-168
2.80621e-169
6.63891e-170
1.56815e-170
3.6982e-171
8.70786e-172
2.04715e-172
4.80517e-173
1.12613e-173
2.63518e-174
6.16099e-175
1.45626e-175
4.21404e-176
)
;

boundaryField
{
    sides
    {
        type            zeroGradient;
    }
    empty
    {
        type            empty;
    }
}


// ************************************************************************* //
