/*--------------------------------*- C++ -*----------------------------------*\
| =========                 |                                                 |
| \\      /  F ield         | OpenFOAM: The Open Source CFD Toolbox           |
|  \\    /   O peration     | Version:  2312                                  |
|   \\  /    A nd           | Website:  www.openfoam.com                      |
|    \\/     M anipulation  |                                                 |
\*---------------------------------------------------------------------------*/
FoamFile
{
    version     2.0;
    format      ascii;
    arch        "LSB;label=32;scalar=64";
    class       volScalarField;
    location    "0.5";
    object      T;
}
// * * * * * * * * * * * * * * * * * * * * * * * * * * * * * * * * * * * * * //

dimensions      [0 0 0 1 0 0 0];

internalField   nonuniform List<scalar> 
1000
(
2.31846e-296
1.64218e-295
1.33163e-294
1.08095e-293
8.76473e-293
7.09851e-292
5.74234e-291
4.63984e-290
3.74462e-289
3.01856e-288
2.43041e-287
1.95454e-286
1.56998e-285
1.25958e-284
1.00933e-283
8.07838e-283
6.45788e-282
5.15622e-281
4.11193e-280
3.27515e-279
2.60547e-278
2.07019e-277
1.64285e-276
1.30213e-275
1.03079e-274
8.14979e-274
6.43551e-273
5.07547e-272
3.99783e-271
3.14504e-270
2.47104e-269
1.93903e-268
1.51962e-267
1.18941e-266
9.29767e-266
7.25868e-265
5.65955e-264
4.40701e-263
3.42722e-262
2.6618e-261
2.06462e-260
1.59933e-259
1.23726e-258
9.55901e-258
7.37545e-257
5.68312e-256
4.37326e-255
3.3608e-254
2.57927e-253
1.97681e-252
1.51302e-251
1.15648e-250
8.82745e-250
6.72884e-249
5.12212e-248
3.89368e-247
2.95577e-246
2.24068e-245
1.69622e-244
1.28227e-243
9.67981e-243
7.29699e-242
5.49296e-241
4.12909e-240
3.09945e-239
2.32324e-238
1.73893e-237
1.2997e-236
9.70018e-236
7.22914e-235
5.37975e-234
3.99764e-233
2.96626e-232
2.19774e-231
1.62593e-230
1.20111e-229
8.85974e-229
6.52544e-228
4.79897e-227
3.52398e-226
2.58383e-225
1.89163e-224
1.38277e-223
1.00925e-222
7.35499e-222
5.35178e-221
3.88816e-220
2.82044e-219
2.04275e-218
1.47718e-217
1.06653e-216
7.68826e-216
5.53347e-215
3.9763e-214
2.85278e-213
2.04345e-212
1.46138e-211
1.04343e-210
7.43811e-210
5.29366e-209
3.76133e-208
2.66819e-207
1.88964e-206
1.33606e-205
9.43093e-205
6.64601e-204
4.67566e-203
3.28396e-202
2.30262e-201
1.61181e-200
1.12634e-199
7.85751e-199
5.47217e-198
3.80442e-197
2.6404e-196
1.82936e-195
1.26525e-194
8.73565e-194
6.0208e-193
4.14238e-192
2.84498e-191
1.95046e-190
1.33483e-189
9.11875e-189
6.21823e-188
4.23269e-187
2.87594e-186
1.95054e-185
1.32049e-184
8.92325e-184
6.01881e-183
4.05225e-182
2.72318e-181
1.82662e-180
1.22294e-179
8.17238e-179
5.45095e-178
3.62888e-177
2.41127e-176
1.59915e-175
1.05852e-174
6.99318e-174
4.61113e-173
3.03456e-172
1.99313e-171
1.30655e-170
8.54787e-170
5.58126e-169
3.637e-168
2.36531e-167
1.53519e-166
9.944e-166
6.4281e-165
4.14688e-164
2.66977e-163
1.71529e-162
1.09978e-161
7.03684e-161
4.4931e-160
2.86292e-159
1.82038e-158
1.15505e-157
7.3134e-157
4.62079e-156
2.91331e-155
1.83284e-154
1.15061e-153
7.20763e-153
4.50518e-152
2.80985e-151
1.74864e-150
1.08583e-149
6.72762e-149
4.15905e-148
2.56541e-147
1.57886e-146
9.69505e-146
5.93981e-145
3.63083e-144
2.21434e-143
1.34736e-142
8.1794e-142
4.95393e-141
2.99341e-140
1.80453e-139
1.08527e-138
6.51154e-138
3.8976e-137
2.32741e-136
1.38646e-135
8.2393e-135
4.88452e-134
2.88865e-133
1.70413e-132
1.00287e-131
5.8872e-131
3.44743e-130
2.0137e-129
1.17329e-128
6.819e-128
3.95306e-127
2.28581e-126
1.31835e-125
7.58415e-125
4.35168e-124
2.49045e-123
1.42155e-122
8.09294e-122
4.59518e-121
2.60222e-120
1.4697e-119
8.27839e-119
4.65042e-118
2.60532e-117
1.45561e-116
8.11036e-116
4.50649e-115
2.49709e-114
1.37981e-113
7.60311e-113
4.17772e-112
2.28907e-111
1.25067e-110
6.81375e-110
3.70152e-109
2.00502e-108
1.08291e-107
5.83176e-107
3.13134e-106
1.6764e-105
8.94814e-105
4.76202e-104
2.52665e-103
1.33655e-102
7.04868e-102
3.70598e-101
1.94251e-100
1.01504e-99
5.28751e-99
2.74576e-98
1.42138e-97
7.33472e-97
3.77291e-96
1.93455e-95
9.88754e-95
5.03722e-94
2.55788e-93
1.29464e-92
6.53111e-92
3.28388e-91
1.64566e-90
8.21939e-90
4.09142e-89
2.02972e-88
1.0035e-87
4.94432e-87
2.42771e-86
1.1879e-85
5.7922e-85
2.81437e-84
1.36264e-83
6.57413e-83
3.16038e-82
1.51382e-81
7.22496e-81
3.43568e-80
1.62778e-79
7.68375e-79
3.61357e-78
1.69307e-77
7.90279e-77
3.67485e-76
1.70232e-75
7.85559e-75
3.61109e-74
1.65352e-73
7.54193e-73
3.42645e-72
1.55055e-71
6.98867e-71
3.13732e-70
1.40271e-69
6.24612e-69
2.76996e-68
1.22334e-67
5.38041e-67
2.35651e-66
1.02777e-65
4.46359e-65
1.93028e-64
8.31172e-64
3.56356e-63
1.5212e-62
6.46524e-62
2.73569e-61
1.15244e-60
4.8331e-60
2.01779e-59
8.386e-59
3.46935e-58
1.42871e-57
5.8563e-57
2.38933e-56
9.70253e-56
3.92137e-55
1.57731e-54
6.31407e-54
2.51535e-53
9.97171e-53
3.93375e-52
1.54417e-51
6.03137e-51
2.34399e-50
9.06355e-50
3.48679e-49
1.33451e-48
5.08122e-48
1.92464e-47
7.25184e-47
2.71798e-46
1.01327e-45
3.75726e-45
1.38567e-44
5.08251e-44
1.85398e-43
6.72543e-43
2.42609e-42
8.70252e-42
3.10396e-41
1.10077e-40
3.88127e-40
1.36057e-39
4.74155e-39
1.64267e-38
5.65705e-38
1.93651e-37
6.58893e-37
2.22821e-36
7.48896e-36
2.50143e-35
8.30296e-35
2.73863e-34
8.97567e-34
2.92287e-33
9.45666e-33
3.03968e-32
9.70633e-32
3.07889e-31
9.70113e-31
3.03608e-30
9.43713e-30
2.91325e-29
8.93104e-29
2.71884e-28
8.2186e-28
2.4667e-27
7.35043e-27
2.17449e-26
6.38593e-26
1.86159e-25
5.3865e-25
1.54691e-24
4.40887e-24
1.247e-23
3.49985e-23
9.74646e-23
2.69295e-22
7.38179e-22
2.00731e-21
5.41448e-21
1.44862e-20
3.84392e-20
1.01154e-19
2.63968e-19
6.8303e-19
1.75233e-18
4.45703e-18
1.12381e-17
2.80882e-17
6.95826e-17
1.70839e-16
4.15671e-16
1.00219e-15
2.39414e-15
5.66644e-15
1.32861e-14
3.08581e-14
7.09888e-14
1.61741e-13
3.64938e-13
8.15358e-13
1.80372e-12
3.95038e-12
8.56486e-12
1.83811e-11
3.90438e-11
8.2077e-11
1.70741e-10
3.51449e-10
7.15734e-10
1.442e-09
2.87383e-09
5.665e-09
1.10443e-08
2.12931e-08
4.05934e-08
7.65158e-08
1.42588e-07
2.62672e-07
4.78302e-07
8.60812e-07
1.53106e-06
2.69104e-06
4.67359e-06
8.0195e-06
1.35949e-05
2.27666e-05
3.76604e-05
6.1532e-05
9.92922e-05
0.000158233
0.000249012
0.000386952
0.000593723
0.000899451
0.0013453
0.0019865
0.00289585
0.00416742
0.00592043
0.00830292
0.0114947
0.0157094
0.0211945
0.0282294
0.0371204
0.0481926
0.0617783
0.0782017
0.0977609
0.120708
0.147227
0.177415
0.211263
0.248643
0.2893
0.332853
0.378801
0.42654
0.475388
0.524612
0.57346
0.621199
0.667147
0.7107
0.751357
0.788737
0.822585
0.852773
0.879292
0.902239
0.921798
0.938222
0.951807
0.96288
0.971771
0.978806
0.984291
0.988505
0.991697
0.99408
0.995833
0.997104
0.998013
0.998655
0.999101
0.999406
0.999613
0.999751
0.999842
0.999901
0.999938
0.999962
0.999977
0.999986
0.999992
0.999995
0.999997
0.999998
0.999999
1
1
1
1
1
1
1
1
1
1
1
1
1
1
1
1
1
1
1
1
0.999999
0.999998
0.999997
0.999995
0.999992
0.999986
0.999977
0.999962
0.999938
0.999901
0.999842
0.999751
0.999613
0.999406
0.999101
0.998655
0.998013
0.997104
0.995833
0.99408
0.991697
0.988505
0.984291
0.978806
0.971771
0.96288
0.951807
0.938222
0.921798
0.902239
0.879292
0.852773
0.822585
0.788737
0.751357
0.7107
0.667147
0.621199
0.57346
0.524612
0.475388
0.42654
0.378801
0.332853
0.2893
0.248643
0.211263
0.177415
0.147227
0.120708
0.0977609
0.0782017
0.0617783
0.0481926
0.0371204
0.0282294
0.0211945
0.0157094
0.0114947
0.00830292
0.00592043
0.00416742
0.00289585
0.0019865
0.0013453
0.000899451
0.000593723
0.000386952
0.000249012
0.000158233
9.92922e-05
6.1532e-05
3.76604e-05
2.27666e-05
1.35949e-05
8.0195e-06
4.67359e-06
2.69104e-06
1.53106e-06
8.60812e-07
4.78302e-07
2.62672e-07
1.42588e-07
7.65158e-08
4.05934e-08
2.12931e-08
1.10443e-08
5.665e-09
2.87383e-09
1.442e-09
7.15734e-10
3.51449e-10
1.70741e-10
8.2077e-11
3.90438e-11
1.83811e-11
8.56486e-12
3.95038e-12
1.80372e-12
8.15358e-13
3.64938e-13
1.61741e-13
7.09888e-14
3.08581e-14
1.32861e-14
5.66644e-15
2.39414e-15
1.00219e-15
4.15671e-16
1.70839e-16
6.95826e-17
2.80882e-17
1.12381e-17
4.45703e-18
1.75233e-18
6.8303e-19
2.63968e-19
1.01154e-19
3.84392e-20
1.44862e-20
5.41448e-21
2.00731e-21
7.38179e-22
2.69295e-22
9.74646e-23
3.49985e-23
1.247e-23
4.40887e-24
1.54691e-24
5.3865e-25
1.86159e-25
6.38593e-26
2.17449e-26
7.35043e-27
2.4667e-27
8.2186e-28
2.71884e-28
8.93104e-29
2.91325e-29
9.43713e-30
3.03608e-30
9.70113e-31
3.07889e-31
9.70633e-32
3.03968e-32
9.45666e-33
2.92287e-33
8.97567e-34
2.73863e-34
8.30296e-35
2.50143e-35
7.48896e-36
2.22821e-36
6.58893e-37
1.93651e-37
5.65705e-38
1.64267e-38
4.74155e-39
1.36057e-39
3.88127e-40
1.10077e-40
3.10396e-41
8.70252e-42
2.42609e-42
6.72543e-43
1.85398e-43
5.08251e-44
1.38567e-44
3.75726e-45
1.01327e-45
2.71798e-46
7.25184e-47
1.92464e-47
5.08122e-48
1.33451e-48
3.48679e-49
9.06355e-50
2.34399e-50
6.03137e-51
1.54417e-51
3.93375e-52
9.97171e-53
2.51535e-53
6.31407e-54
1.57731e-54
3.92137e-55
9.70253e-56
2.38933e-56
5.8563e-57
1.42871e-57
3.46935e-58
8.386e-59
2.01779e-59
4.8331e-60
1.15244e-60
2.73569e-61
6.46524e-62
1.5212e-62
3.56356e-63
8.31172e-64
1.93028e-64
4.46359e-65
1.02777e-65
2.35651e-66
5.38041e-67
1.22334e-67
2.76996e-68
6.24612e-69
1.40271e-69
3.13732e-70
6.98867e-71
1.55055e-71
3.42645e-72
7.54193e-73
1.65352e-73
3.61109e-74
7.85559e-75
1.70232e-75
3.67485e-76
7.90279e-77
1.69307e-77
3.61357e-78
7.68375e-79
1.62778e-79
3.43568e-80
7.22496e-81
1.51382e-81
3.16038e-82
6.57413e-83
1.36264e-83
2.81437e-84
5.7922e-85
1.1879e-85
2.42771e-86
4.94432e-87
1.0035e-87
2.02972e-88
4.09142e-89
8.21939e-90
1.64566e-90
3.28388e-91
6.53111e-92
1.29464e-92
2.55788e-93
5.03722e-94
9.88754e-95
1.93455e-95
3.77291e-96
7.33472e-97
1.42138e-97
2.74576e-98
5.28751e-99
1.01504e-99
1.94251e-100
3.70598e-101
7.04868e-102
1.33655e-102
2.52665e-103
4.76202e-104
8.94814e-105
1.6764e-105
3.13134e-106
5.83176e-107
1.08291e-107
2.00502e-108
3.70152e-109
6.81375e-110
1.25067e-110
2.28907e-111
4.17772e-112
7.60311e-113
1.37981e-113
2.49709e-114
4.50649e-115
8.11036e-116
1.45561e-116
2.60532e-117
4.65042e-118
8.27839e-119
1.4697e-119
2.60222e-120
4.59518e-121
8.09294e-122
1.42155e-122
2.49045e-123
4.35168e-124
7.58415e-125
1.31835e-125
2.28581e-126
3.95306e-127
6.819e-128
1.17329e-128
2.0137e-129
3.44743e-130
5.8872e-131
1.00287e-131
1.70413e-132
2.88865e-133
4.88452e-134
8.2393e-135
1.38646e-135
2.32741e-136
3.8976e-137
6.51154e-138
1.08527e-138
1.80453e-139
2.99341e-140
4.95393e-141
8.1794e-142
1.34736e-142
2.21434e-143
3.63083e-144
5.93981e-145
9.69505e-146
1.57886e-146
2.56541e-147
4.15905e-148
6.72762e-149
1.08583e-149
1.74864e-150
2.80985e-151
4.50518e-152
7.20763e-153
1.15061e-153
1.83284e-154
2.91331e-155
4.62079e-156
7.3134e-157
1.15505e-157
1.82038e-158
2.86292e-159
4.4931e-160
7.03684e-161
1.09978e-161
1.71529e-162
2.66977e-163
4.14688e-164
6.4281e-165
9.944e-166
1.53519e-166
2.36531e-167
3.637e-168
5.58126e-169
8.54787e-170
1.30655e-170
1.99313e-171
3.03456e-172
4.61113e-173
6.99318e-174
1.05852e-174
1.59915e-175
2.41127e-176
3.62888e-177
5.45095e-178
8.17238e-179
1.22294e-179
1.82662e-180
2.72318e-181
4.05225e-182
6.01881e-183
8.92325e-184
1.32049e-184
1.95054e-185
2.87594e-186
4.23269e-187
6.21823e-188
9.11875e-189
1.33483e-189
1.95046e-190
2.84498e-191
4.14238e-192
6.0208e-193
8.73565e-194
1.26525e-194
1.82936e-195
2.6404e-196
3.80442e-197
5.47217e-198
7.85751e-199
1.12634e-199
1.61181e-200
2.30262e-201
3.28396e-202
4.67566e-203
6.64601e-204
9.43093e-205
1.33606e-205
1.88964e-206
2.66819e-207
3.76133e-208
5.29366e-209
7.43811e-210
1.04343e-210
1.46138e-211
2.04345e-212
2.85278e-213
3.9763e-214
5.53347e-215
7.68826e-216
1.06653e-216
1.47718e-217
2.04275e-218
2.82044e-219
3.88816e-220
5.35178e-221
7.35499e-222
1.00925e-222
1.38277e-223
1.89163e-224
2.58383e-225
3.52398e-226
4.79897e-227
6.52544e-228
8.85974e-229
1.20111e-229
1.62593e-230
2.19774e-231
2.96626e-232
3.99764e-233
5.37975e-234
7.22914e-235
9.70018e-236
1.2997e-236
1.73893e-237
2.32324e-238
3.09945e-239
4.12909e-240
5.49296e-241
7.29699e-242
9.67981e-243
1.28227e-243
1.69622e-244
2.24068e-245
2.95577e-246
3.89368e-247
5.12212e-248
6.72884e-249
8.82745e-250
1.15648e-250
1.51302e-251
1.97681e-252
2.57927e-253
3.3608e-254
4.37326e-255
5.68312e-256
7.37545e-257
9.55901e-258
1.23726e-258
1.59933e-259
2.06462e-260
2.6618e-261
3.42722e-262
4.40701e-263
5.65955e-264
7.25868e-265
9.29767e-266
1.18941e-266
1.51962e-267
1.93903e-268
2.47104e-269
3.14504e-270
3.99783e-271
5.07547e-272
6.43551e-273
8.14979e-274
1.03079e-274
1.30213e-275
1.64285e-276
2.07019e-277
2.60547e-278
3.27515e-279
4.11193e-280
5.15622e-281
6.45788e-282
8.07838e-283
1.00933e-283
1.25958e-284
1.56998e-285
1.95454e-286
2.43041e-287
3.01856e-288
3.74462e-289
4.63984e-290
5.74234e-291
7.09851e-292
8.76473e-293
1.08095e-293
1.33163e-294
1.64218e-295
2.31846e-296
)
;

boundaryField
{
    sides
    {
        type            zeroGradient;
    }
    empty
    {
        type            empty;
    }
}


// ************************************************************************* //
