/*--------------------------------*- C++ -*----------------------------------*\
| =========                 |                                                 |
| \\      /  F ield         | OpenFOAM: The Open Source CFD Toolbox           |
|  \\    /   O peration     | Version:  2312                                  |
|   \\  /    A nd           | Website:  www.openfoam.com                      |
|    \\/     M anipulation  |                                                 |
\*---------------------------------------------------------------------------*/
FoamFile
{
    version     2.0;
    format      ascii;
    arch        "LSB;label=32;scalar=64";
    class       volScalarField;
    location    "3.7";
    object      T;
}
// * * * * * * * * * * * * * * * * * * * * * * * * * * * * * * * * * * * * * //

dimensions      [0 0 0 1 0 0 0];

internalField   nonuniform List<scalar> 
1000
(
1.07025e-09
-4.40181e-10
1.25993e-09
-1.62877e-09
2.61758e-09
-3.88974e-09
5.89882e-09
-8.84395e-09
1.32436e-08
-1.97424e-08
2.93271e-08
-4.3396e-08
6.39694e-08
-9.39302e-08
1.37384e-07
-2.00144e-07
2.90407e-07
-4.19674e-07
6.03999e-07
-8.65683e-07
1.23555e-06
-1.75596e-06
2.48488e-06
-3.5011e-06
4.91122e-06
-6.8586e-06
9.53491e-06
-1.31949e-05
1.8175e-05
-2.49171e-05
3.39969e-05
-4.61608e-05
6.23684e-05
-8.38457e-05
0.000112147
-0.000149225
0.000197521
-0.00026005
0.000340512
-0.000443398
0.000574109
-0.000739071
0.000945836
-0.00120317
0.00152113
-0.00191103
0.00238542
-0.00295794
0.00364305
-0.00445565
0.00541054
-0.00652169
0.00780131
-0.00925875
0.0108992
-0.0127221
0.0147197
-0.0168754
0.019162
-0.0215405
0.0239588
-0.0263514
0.0286394
-0.0307318
0.0325273
-0.033918
0.0347942
-0.0350501
0.034591
-0.0333412
0.0312528
-0.0283134
0.0245537
-0.0200531
0.0149425
-0.00940405
0.00366659
0.00200382
-0.00731756
0.0119797
-0.0157118
0.0182755
-0.019496
0.019284
-0.0176519
0.0147229
-0.010731
0.00600943
-0.000967891
-0.00394045
0.00826052
-0.0115813
0.0135818
-0.0140705
0.0130143
-0.010551
0.00698115
-0.00274042
-0.00164836
0.00563759
-0.008725
0.0105222
-0.0108118
0.00958329
-0.00704132
0.00358193
0.000261423
-0.00389599
0.00676109
-0.00841855
0.00862695
-0.00738586
0.00494041
-0.00174304
-0.00162324
0.00454821
-0.00650629
0.00715616
-0.00640815
0.00444437
-0.00168536
-0.00129249
0.0038737
-0.00553165
0.0059407
-0.00504733
0.00308308
-0.000514197
-0.00206308
0.00405903
-0.0050279
0.00477368
-0.00339745
0.001273
0.00104532
-0.00296131
0.00398792
-0.00387172
0.00265754
-0.000674422
-0.00155515
0.00345975
-0.00457859
0.00469167
-0.00388303
0.0025177
-0.00113719
0.000302916
-0.000433115
0.00168229
-0.00390044
0.00668572
-0.00951533
0.011914
-0.0136067
0.0146051
-0.0151991
0.0158539
-0.0170459
0.0190915
-0.0220268
0.02558
-0.029247
0.0324445
-0.034688
0.0357309
-0.0356163
0.0346229
-0.0331268
0.0314325
-0.0296397
0.0275982
-0.0249729
0.0213947
-0.0166402
0.0107703
-0.00416943
-0.00252995
0.00861406
-0.0134808
0.0167864
-0.0184925
0.0188009
-0.0180119
0.0163738
-0.0139926
0.0108441
-0.00687976
0.00217634
0.00294979
-0.00792586
0.012027
-0.0145697
0.01512
-0.013633
0.010466
-0.006263
0.00175943
0.0024083
-0.00581687
0.00826064
-0.00967064
0.0100127
-0.00923457
0.00729979
-0.0042904
0.000515083
0.00345498
-0.00687057
0.00899789
-0.00935073
0.00786348
-0.00492676
0.00126628
0.00228475
-0.00502502
0.0065436
-0.0067516
0.00580582
-0.00399065
0.00163012
0.000935382
-0.0033276
0.00512158
-0.00590181
0.0053903
-0.00359478
0.000890888
0.00203125
-0.0043639
0.00545341
-0.00503171
0.0033041
-0.000856028
-0.00157354
0.00334639
-0.00410038
0.00379285
-0.00263134
0.000959162
0.000838062
-0.00238114
0.00332609
-0.00341445
0.00255977
-0.000933957
-0.00101538
0.00266914
-0.00345136
0.00306871
-0.00165525
-0.000262772
0.00197841
-0.00289465
0.00275541
-0.00171348
0.000221231
0.00118095
-0.0020667
0.00223472
-0.00171461
0.000709231
0.000475272
-0.00149123
0.00201755
-0.00185142
0.0010062
0.000241834
-0.00141782
0.00203104
-0.00180395
0.000825136
0.000471898
-0.00150954
0.00184522
-0.0013782
0.00037528
0.000686526
-0.00136054
0.00142118
-0.000920792
0.000116792
0.000662364
-0.0011384
0.00115733
-0.000721787
-6.53072e-06
0.000742213
-0.00116704
0.0010675
-0.000460061
-0.000380381
0.00103628
-0.00116557
0.00069944
0.000108188
-0.000821192
0.00107042
-0.000757476
9.06072e-05
0.00055708
-0.000865304
0.000724509
-0.000256454
-0.000284077
0.000646606
-0.000687097
0.00040731
5.84277e-05
-0.000494072
0.000685055
-0.00051996
6.68393e-05
0.000435706
-0.000697518
0.000552828
-7.92295e-05
-0.00043552
0.000673088
-0.000493404
2.52973e-05
0.000426158
-0.000586798
0.000385976
1.98032e-05
-0.000370969
0.00047436
-0.000303287
-1.6919e-05
0.000300751
-0.000402604
0.000278695
-4.42748e-08
-0.000279644
0.000396434
-0.000269324
-3.53754e-05
0.000325813
-0.000402734
0.000203911
0.000136984
-0.000377844
0.000346617
-7.25039e-05
-0.000237799
0.000360871
-0.000223651
-5.45561e-05
0.000267535
-0.000278759
0.000105725
0.000116285
-0.000241162
0.000202836
-3.97078e-05
-0.000141024
0.000226593
-0.000160964
-1.76433e-05
0.000189804
-0.000228224
9.45185e-05
0.00011686
-0.000240556
0.000173251
3.32569e-05
-0.000209094
0.000209953
-4.12555e-05
-0.00015007
0.000207077
-9.54294e-05
-7.94114e-05
0.000173983
-0.000126103
-9.69482e-06
0.000122892
-0.000135971
5.07673e-05
6.57848e-05
-0.000130769
9.74553e-05
1.24614e-05
-0.000116746
0.000128595
-3.04393e-05
-9.88826e-05
0.00014417
-5.97316e-05
-8.00322e-05
0.000145331
-7.54955e-05
-6.09661e-05
0.000134253
-8.04923e-05
-4.1132e-05
0.000114224
-7.91905e-05
-1.98173e-05
8.96346e-05
-7.64456e-05
2.71528e-06
6.55414e-05
-7.60286e-05
2.45938e-05
4.66789e-05
-7.93967e-05
4.25729e-05
3.61095e-05
-8.52089e-05
5.32046e-05
3.40551e-05
-8.99772e-05
5.45465e-05
3.76086e-05
-8.9831e-05
4.75849e-05
4.18158e-05
-8.27598e-05
3.6429e-05
4.19891e-05
-7.01983e-05
2.67601e-05
3.62877e-05
-5.68289e-05
2.29733e-05
2.70679e-05
-4.8255e-05
2.54895e-05
1.98094e-05
-4.75462e-05
3.01053e-05
1.97331e-05
-5.27932e-05
3.03758e-05
2.79635e-05
-5.77279e-05
2.20328e-05
4.00104e-05
-5.56951e-05
6.51581e-06
4.8312e-05
-4.46005e-05
-9.43086e-06
4.76689e-05
-2.89402e-05
-1.86111e-05
3.95311e-05
-1.65264e-05
-1.93189e-05
3.10486e-05
-1.1805e-05
-1.70848e-05
2.87131e-05
-1.14651e-05
-1.96824e-05
3.17697e-05
-7.19538e-06
-2.91095e-05
3.21419e-05
5.84451e-06
-3.84236e-05
2.22745e-05
2.28847e-05
-3.78988e-05
3.76753e-06
3.3105e-05
-2.53474e-05
-1.2949e-05
3.06106e-05
-9.30736e-06
-1.91228e-05
2.10148e-05
-5.00117e-08
-1.7195e-05
1.48034e-05
2.17447e-06
-1.7084e-05
1.4127e-05
6.63395e-06
-2.22848e-05
9.9902e-06
1.8203e-05
-2.37468e-05
-4.44459e-06
2.79779e-05
-1.19572e-05
-2.13134e-05
2.3487e-05
7.57791e-06
-2.57033e-05
6.69143e-06
1.87995e-05
-1.55346e-05
-6.84523e-06
1.60497e-05
-4.51465e-06
-9.14956e-06
1.0627e-05
-1.38823e-06
-9.54684e-06
1.08573e-05
2.38096e-06
-1.55791e-05
7.60423e-06
1.41225e-05
-1.65221e-05
-7.47725e-06
2.13535e-05
-1.66955e-06
-2.08586e-05
1.01124e-05
1.57159e-05
-1.52645e-05
-7.99963e-06
1.58832e-05
3.08906e-07
-1.2236e-05
5.10383e-06
5.77578e-06
-6.93519e-06
1.47113e-06
5.04389e-06
-7.56235e-06
-2.98097e-07
1.11449e-05
-5.81912e-06
-1.1704e-05
1.16856e-05
9.5473e-06
-1.59543e-05
-5.58707e-06
1.78159e-05
1.02233e-06
-1.70809e-05
2.98101e-06
1.41041e-05
-5.53728e-06
-9.60735e-06
6.17772e-06
4.46409e-06
-4.87417e-06
4.98255e-07
1.97213e-06
-4.64079e-06
1.93115e-06
7.58526e-06
-6.1269e-06
-9.21864e-06
9.92373e-06
9.646e-06
-1.27465e-05
-9.11337e-06
1.41977e-05
7.9223e-06
-1.40835e-05
-6.35435e-06
1.24114e-05
4.61796e-06
-9.36931e-06
-2.82401e-06
5.29387e-06
9.91018e-07
-6.34007e-07
9.23676e-07
-4.08913e-06
-2.97428e-06
8.327e-06
5.16869e-06
-1.15563e-05
-7.4153e-06
1.33414e-05
9.48864e-06
-1.3406e-05
-1.10282e-05
1.17053e-05
1.15813e-05
-8.48564e-06
-1.06955e-05
4.3083e-06
8.0518e-06
-1.34894e-08
-3.61725e-06
-3.3965e-06
-2.22378e-06
4.9606e-06
8.61319e-06
-4.02729e-06
-1.42921e-05
5.31495e-07
1.78389e-05
4.81126e-06
-1.80638e-05
-1.05016e-05
1.44831e-05
1.45334e-05
-7.72327e-06
-1.49694e-05
-3.44782e-07
1.07128e-05
6.92527e-06
-2.22713e-06
-9.1369e-06
-8.149e-06
5.21936e-06
1.66262e-05
4.31453e-06
-1.92549e-05
-1.6194e-05
1.38021e-05
2.51366e-05
-1.45825e-06
-2.59721e-05
-1.26782e-05
1.65349e-05
2.11876e-05
8.36363e-08
-1.79489e-05
-1.5651e-05
2.37425e-06
2.02922e-05
1.83366e-05
-8.50637e-06
-3.14385e-05
-1.54924e-05
2.58154e-05
3.74689e-05
-8.49447e-07
-4.05081e-05
-2.93821e-05
1.75696e-05
4.23448e-05
1.90736e-05
-2.32382e-05
-4.15055e-05
-1.89162e-05
2.58885e-05
5.07714e-05
2.31783e-05
-3.7969e-05
-6.62621e-05
-2.01313e-05
5.65636e-05
7.63542e-05
1.19911e-05
-6.89253e-05
-8.11847e-05
-1.2638e-05
7.09937e-05
9.31692e-05
3.01614e-05
-7.05236e-05
-0.000120456
-6.05199e-05
7.22045e-05
0.000156871
9.86484e-05
-6.54882e-05
-0.000188035
-0.000149313
2.83513e-05
0.000200379
0.000221853
5.99989e-05
-0.000178125
-0.000311031
-0.000208855
9.0903e-05
0.000376337
0.000405579
0.000108402
-0.000330055
-0.000590101
-0.000450206
4.79673e-05
0.000610529
0.000858875
0.000558589
-0.000205821
-0.00102016
-0.00134433
-0.000846989
0.000336592
0.00161296
0.0022226
0.00165015
-6.51888e-05
-0.00226287
-0.00387416
-0.0038608
-0.00173211
0.00208527
0.00623495
0.00883513
0.00815799
0.00333346
-0.00514412
-0.0152332
-0.0235353
-0.025841
-0.0179193
0.00365935
0.0408939
0.0940499
0.16168
0.240892
0.327797
0.418068
0.507507
0.592509
0.670332
0.739168
0.798111
0.847057
0.886555
0.917599
0.941394
0.959176
0.972122
0.981313
0.987707
0.992085
0.995027
0.99694
0.998131
0.998855
0.999314
0.999625
0.999822
0.999912
0.999926
0.999925
0.999957
1.00001
1.00004
1.00002
0.999967
0.999945
0.999982
1.00004
1.00006
1.00001
0.999948
0.99993
0.999985
1.00006
1.00008
1.00002
0.999929
0.9999
0.999969
1.00008
1.00012
1.00005
0.999923
0.999848
0.999907
1.00006
1.00018
1.00015
0.99998
0.9998
0.99977
0.999937
1.00019
1.00032
1.0002
0.999902
0.999626
0.999603
0.999892
1.00032
1.00059
1.00046
0.999959
0.999385
0.999132
0.999443
1.00022
1.00102
1.00134
1.00084
0.999669
0.998397
0.997776
0.998339
1.00006
1.00227
1.00388
1.00386
1.00172
0.997913
0.993777
0.991173
0.991834
0.996654
1.00515
1.01525
1.02354
1.02583
1.01791
0.996343
0.959122
0.905958
0.838309
0.759093
0.672205
0.58195
0.492503
0.407478
0.329649
0.260831
0.201908
0.152957
0.113434
0.0823779
0.0585999
0.0408436
0.0279
0.0186826
0.0122663
0.00789799
0.00498779
0.0030899
0.00187788
0.00111972
0.000655053
0.000375989
0.000211732
0.000116971
6.33865e-05
3.36878e-05
1.75552e-05
8.96765e-06
4.48884e-06
2.20082e-06
1.05632e-06
4.95999e-07
2.27662e-07
1.02044e-07
4.46091e-08
1.89893e-08
7.85509e-09
3.14893e-09
1.21879e-09
4.53047e-10
1.60449e-10
5.34404e-11
1.63494e-11
4.36545e-12
8.70996e-13
2.11565e-14
-1.03974e-13
-7.61487e-14
-3.93286e-14
-1.71896e-14
-6.66787e-15
-2.3175e-15
-7.10561e-16
-1.81329e-16
-3.07077e-17
2.62204e-18
5.64897e-18
3.41003e-18
1.53684e-18
5.81277e-19
1.88162e-19
5.03146e-20
9.39732e-21
-9.21721e-23
-1.19183e-21
-7.43293e-22
-3.25971e-22
-1.16126e-22
-3.39776e-23
-7.47158e-24
-6.55465e-25
4.61429e-25
3.56757e-25
1.63816e-25
5.841e-26
1.66e-26
3.36748e-27
1.50403e-28
-2.84746e-28
-1.84358e-28
-7.68326e-29
-2.47054e-29
-6.00482e-30
-8.02692e-31
1.83279e-31
1.90743e-31
8.92539e-32
3.04785e-32
7.82788e-33
1.21225e-33
-1.36411e-34
-2.01628e-34
-9.78319e-35
-3.33742e-35
-8.37563e-36
-1.1985e-36
1.92754e-37
2.25218e-37
1.0251e-37
3.27741e-38
7.41518e-39
7.2686e-40
-3.41529e-40
-2.51954e-40
-9.96971e-41
-2.79868e-41
-5.03654e-42
6.00601e-44
5.1224e-43
2.59182e-43
8.5018e-44
1.91982e-44
1.83616e-45
-8.58336e-46
-6.06096e-46
-2.26763e-46
-5.82654e-47
-8.40229e-48
1.12783e-48
1.32604e-48
5.55341e-49
1.54701e-49
2.62448e-50
-9.72484e-52
-2.81413e-51
-1.28392e-51
-3.74179e-52
-6.78723e-53
1.08472e-55
5.97829e-54
2.85017e-54
8.40751e-55
1.53473e-55
4.03297e-58
-1.29455e-56
-6.12024e-57
-1.76805e-57
-3.07818e-58
5.74183e-60
2.85012e-59
1.2694e-59
3.47386e-60
5.41684e-61
-3.92813e-62
-6.25307e-62
-2.5207e-62
-6.31175e-63
-7.98189e-64
1.52751e-64
1.33084e-64
4.72355e-65
1.03845e-65
8.39355e-67
-4.55411e-67
-2.67812e-67
-8.19134e-68
-1.48513e-68
-6.61181e-71
1.13344e-69
4.98151e-70
1.27927e-70
1.67257e-71
-2.66368e-72
-2.43083e-72
-8.37221e-73
-1.71933e-73
-9.4918e-75
9.01187e-75
4.53244e-75
1.23405e-75
1.79e-76
-1.72413e-77
-2.0564e-77
-7.29697e-78
-1.51167e-78
-8.81454e-80
7.48065e-80
3.73161e-80
9.87528e-81
1.32974e-81
-1.73669e-82
-1.67101e-82
-5.5409e-83
-1.04445e-83
-2.49447e-85
6.46067e-85
2.77566e-85
6.54113e-86
6.50362e-87
-2.02378e-87
-1.2621e-87
-3.59593e-88
-5.2457e-89
3.37634e-90
)
;

boundaryField
{
    sides
    {
        type            zeroGradient;
    }
    empty
    {
        type            empty;
    }
}


// ************************************************************************* //
