/*--------------------------------*- C++ -*----------------------------------*\
| =========                 |                                                 |
| \\      /  F ield         | OpenFOAM: The Open Source CFD Toolbox           |
|  \\    /   O peration     | Version:  2312                                  |
|   \\  /    A nd           | Website:  www.openfoam.com                      |
|    \\/     M anipulation  |                                                 |
\*---------------------------------------------------------------------------*/
FoamFile
{
    version     2.0;
    format      ascii;
    arch        "LSB;label=32;scalar=64";
    class       volScalarField;
    location    "3.9";
    object      T;
}
// * * * * * * * * * * * * * * * * * * * * * * * * * * * * * * * * * * * * * //

dimensions      [0 0 0 1 0 0 0];

internalField   nonuniform List<scalar> 
1000
(
0
0
0
0
0
0
0
0
0
0
0
0
0
0
0
0
0
0
0
0
0
0
0
0
0
0
0
0
0
0
0
0
0
0
0
0
0
0
0
0
0
0
0
0
0
0
0
0
0
0
0
0
0
0
0
0
0
0
0
0
0
0
0
0
0
0
0
0
0
0
0
0
0
0
0
0
0
0
0
0
0
0
0
0
0
0
0
0
0
0
0
0
0
0
0
0
0
0
0
0
0
0
0
0
0
0
0
0
0
0
0
0
0
0
0
0
0
0
0
0
0
0
0
0
0
0
0
0
0
0
0
0
0
0
0
0
0
0
0
0
0
0
0
0
0
0
0
0
0
0
0
0
0
0
0
0
0
0
0
0
0
0
0
0
0
0
0
0
0
0
0
0
0
0
0
0
0
0
0
0
0
0
0
0
0
0
0
0
0
0
0
0
0
0
0
0
0
0
0
0
0
0
0
0
0
0
0
0
0
0
0
0
0
0
0
0
0
0
0
0
0
0
0
0
0
0
0
0
0
0
0
0
0
0
0
0
0
0
0
0
0
0
0
0
0
0
0
0
0
0
0
0
0
0
0
0
0
0
0
0
0
0
0
0
0
0
0
0
0
0
0
0
0
0
0
0
0
0
0
0
0
0
0
0
0
0
0
0
0
0
0
0
0
0
0
0
0
0
0
0
0
0
0
0
0
0
0
0
0
0
0
0
0
0
0
0
0
0
0
0
0
0
0
0
0
0
0
0
0
0
0
0
0
0
0
0
0
0
0
0
0
0
0
0
0
0
0
0
0
0
0
0
0
0
0
0
0
0
0
0
0
0
0
0
0
0
0
0
0
0
0
0
0
0
0
0
0
0
0
0
0
0
0
0
0
0
0
0
0
0
0
0
0
0
0
0
0
0
0
0
0
0
0
0
0
0
0
0
0
0
0
0
0
0
0
0
0
0
0
0
0
0
0
0
0
0
0
0
0
0
0
0
0
0
0
0
0
0
0
0
0
0
0
0
0
0
0
0
0
0
4.30234e-112
1.07206e-109
1.33606e-107
1.11034e-105
6.9225e-104
3.45366e-102
1.43626e-100
5.121e-99
1.5981e-97
4.43423e-96
1.10762e-94
2.51589e-93
5.23985e-92
1.00763e-90
1.79978e-89
3.00117e-88
4.693e-87
6.90874e-86
9.6082e-85
1.26626e-83
1.58578e-82
1.89188e-81
2.15505e-80
2.34874e-79
2.45384e-78
2.46177e-77
2.37538e-76
2.20773e-75
1.97917e-74
1.71356e-73
1.43453e-72
1.16251e-71
9.12881e-71
6.95322e-70
5.14176e-69
3.69459e-68
2.58169e-67
1.75575e-66
1.16294e-65
7.50738e-65
4.72654e-64
2.90398e-63
1.74219e-62
1.02117e-61
5.85107e-61
3.27892e-60
1.79804e-59
9.65269e-59
5.07542e-58
2.61493e-57
1.32067e-56
6.54101e-56
3.17821e-55
1.51554e-54
7.09501e-54
3.26204e-53
1.4734e-52
6.54007e-52
2.85372e-51
1.22444e-50
5.16751e-50
2.14569e-49
8.76823e-49
3.52718e-48
1.39708e-47
5.4501e-47
2.09448e-46
7.93117e-46
2.95995e-45
1.08896e-44
3.95012e-44
1.41309e-43
4.98624e-43
1.73583e-42
5.96287e-42
2.02159e-41
6.7655e-41
2.23538e-40
7.2932e-40
2.35004e-39
7.47979e-39
2.35196e-38
7.30742e-38
2.24365e-37
6.80873e-37
2.04249e-36
6.05752e-36
1.77636e-35
5.15142e-35
1.47753e-34
4.19197e-34
1.17658e-33
3.26739e-33
8.9786e-33
2.44171e-32
6.57213e-32
1.75103e-31
4.61854e-31
1.2061e-30
3.11873e-30
7.98603e-30
2.02528e-29
5.08729e-29
1.26582e-28
3.12025e-28
7.62031e-28
1.84401e-27
4.42184e-27
1.05081e-26
2.47498e-26
5.77799e-26
1.33714e-25
3.06766e-25
6.97754e-25
1.57361e-24
3.51905e-24
7.80406e-24
1.71638e-23
3.74402e-23
8.10072e-23
1.73861e-22
3.70173e-22
7.81915e-22
1.63869e-21
3.40759e-21
7.03131e-21
1.43977e-20
2.92581e-20
5.90096e-20
1.18127e-19
2.3472e-19
4.6297e-19
9.06534e-19
1.76225e-18
3.40118e-18
6.51767e-18
1.24017e-17
2.34327e-17
4.39678e-17
8.19302e-17
1.51626e-16
2.78705e-16
5.08838e-16
9.22784e-16
1.66237e-15
2.975e-15
5.28925e-15
9.3427e-15
1.63961e-14
2.85906e-14
4.95376e-14
8.52901e-14
1.45926e-13
2.48117e-13
4.19266e-13
7.04127e-13
1.17533e-12
1.94998e-12
3.21577e-12
5.27157e-12
8.5904e-12
1.39163e-11
2.24123e-11
3.58855e-11
5.71268e-11
9.042e-11
1.42302e-10
2.22686e-10
3.4652e-10
5.36207e-10
8.25131e-10
1.26274e-09
1.92186e-09
2.90912e-09
4.37975e-09
6.55842e-09
9.76847e-09
1.44726e-08
2.13291e-08
3.12695e-08
4.56042e-08
6.61668e-08
9.55079e-08
1.37157e-07
1.9597e-07
2.78591e-07
3.94062e-07
5.54622e-07
7.76743e-07
1.08248e-06
1.50119e-06
2.07176e-06
2.8454e-06
3.88922e-06
5.29065e-06
7.16301e-06
9.6524e-06
1.29462e-05
1.72832e-05
2.29668e-05
3.03795e-05
4.00016e-05
5.24327e-05
6.84179e-05
8.88773e-05
0.000114942
0.000147995
0.000189716
0.000242139
0.000307711
0.000389357
0.000490562
0.000615449
0.000768874
0.000956524
0.00118502
0.00146203
0.0017964
0.00219823
0.00267907
0.00325196
0.00393161
0.00473447
0.00567885
0.006785
0.00807521
0.00957379
0.0113071
0.0133038
0.0155941
0.0182106
0.0211876
0.0245608
0.0283675
0.0326461
0.0374359
0.0427764
0.0487073
0.0552677
0.062496
0.0704287
0.0791005
0.0885434
0.0987861
0.109853
0.121766
0.134539
0.148183
0.162702
0.178093
0.194347
0.21145
0.229377
0.248099
0.267579
0.287773
0.308631
0.330094
0.352102
0.374585
0.397472
0.420686
0.444147
0.467773
0.491481
0.515188
0.53881
0.562264
0.585471
0.608354
0.630837
0.652854
0.674338
0.695232
0.715481
0.73504
0.753867
0.771929
0.7892
0.805658
0.821289
0.836085
0.850046
0.863174
0.875479
0.886974
0.897679
0.907614
0.916806
0.925282
0.933074
0.940212
0.946732
0.952668
0.958055
0.962928
0.967322
0.971271
0.97481
0.977969
0.980781
0.983275
0.985478
0.987418
0.989118
0.990601
0.991888
0.992996
0.993944
0.994745
0.995413
0.995956
0.996386
0.996707
0.996924
0.99704
0.997056
0.99697
0.996777
0.996472
0.996047
0.99549
0.994791
0.993932
0.992897
0.991665
0.990215
0.988522
0.986558
0.984294
0.9817
0.97874
0.975382
0.971586
0.967317
0.962535
0.957201
0.951275
0.944718
0.937493
0.929562
0.920893
0.911451
0.90121
0.890143
0.878231
0.865459
0.851815
0.837297
0.821906
0.805652
0.78855
0.770623
0.7519
0.73242
0.712227
0.691369
0.669905
0.647898
0.625414
0.602528
0.579314
0.555853
0.532227
0.508519
0.484812
0.46119
0.437736
0.414529
0.391646
0.369163
0.347146
0.325662
0.304768
0.284519
0.26496
0.246133
0.228071
0.2108
0.194342
0.178711
0.163915
0.149954
0.136826
0.124521
0.113025
0.102321
0.0923852
0.0831933
0.0747168
0.066925
0.0597855
0.0532647
0.0473278
0.0419395
0.0370647
0.0326683
0.0287156
0.0251731
0.0220079
0.0191888
0.0166855
0.0144695
0.0125139
0.0107933
0.00928416
0.00796442
0.00681381
0.00581369
0.00494698
0.00419812
0.00355303
0.00299896
0.00252449
0.00211937
0.00177449
0.00148175
0.00123399
0.00102491
0.000848987
0.000701383
0.000577899
0.00047489
0.000389207
0.000318138
0.000259359
0.000210881
0.000171013
0.000138318
0.000111579
8.97742e-05
7.20412e-05
5.76602e-05
4.60297e-05
3.66497e-05
2.91054e-05
2.30543e-05
1.82141e-05
1.43529e-05
1.12812e-05
8.84414e-06
6.91579e-06
5.39407e-06
4.19645e-06
3.25643e-06
2.52057e-06
1.94605e-06
1.49869e-06
1.15125e-06
8.82141e-07
6.7424e-07
5.14046e-07
3.90935e-07
2.96567e-07
2.2442e-07
1.69403e-07
1.27557e-07
9.58114e-08
7.17891e-08
5.36577e-08
4.00074e-08
2.97568e-08
2.20787e-08
1.63419e-08
1.20663e-08
8.88786e-09
6.53085e-09
4.78735e-09
3.50087e-09
2.55397e-09
1.85872e-09
1.34952e-09
9.7748e-10
7.06327e-10
5.09184e-10
3.66199e-10
2.62746e-10
1.88076e-10
1.34311e-10
9.56918e-11
6.8018e-11
4.82349e-11
3.41264e-11
2.40887e-11
1.69642e-11
1.19194e-11
8.35551e-12
5.84383e-12
4.07782e-12
2.83902e-12
1.97206e-12
1.36673e-12
9.45073e-13
6.52027e-13
4.48835e-13
3.08271e-13
2.11253e-13
1.44445e-13
9.8545e-14
6.70809e-14
4.55616e-14
3.08771e-14
2.08793e-14
1.40876e-14
9.48429e-15
6.37117e-15
4.27056e-15
2.85629e-15
1.90622e-15
1.26941e-15
8.43512e-16
5.59295e-16
3.70046e-16
2.44307e-16
1.60948e-16
1.05805e-16
6.94062e-17
4.54325e-17
2.96765e-17
1.93437e-17
1.2582e-17
8.16659e-18
5.28957e-18
3.41892e-18
2.2052e-18
1.41939e-18
9.11695e-19
5.8438e-19
3.73802e-19
2.3861e-19
1.51999e-19
9.66273e-20
6.13009e-20
3.88101e-20
2.45208e-20
1.54611e-20
9.72886e-21
6.10947e-21
3.82883e-21
2.3947e-21
1.49473e-21
9.31111e-22
5.78855e-22
3.59145e-22
2.22384e-22
1.37427e-22
8.47576e-23
5.21705e-23
3.20489e-23
1.96492e-23
)
;

boundaryField
{
    sides
    {
        type            zeroGradient;
    }
    empty
    {
        type            empty;
    }
}


// ************************************************************************* //
