/*--------------------------------*- C++ -*----------------------------------*\
| =========                 |                                                 |
| \\      /  F ield         | OpenFOAM: The Open Source CFD Toolbox           |
|  \\    /   O peration     | Version:  2312                                  |
|   \\  /    A nd           | Website:  www.openfoam.com                      |
|    \\/     M anipulation  |                                                 |
\*---------------------------------------------------------------------------*/
FoamFile
{
    version     2.0;
    format      ascii;
    arch        "LSB;label=32;scalar=64";
    class       volScalarField;
    location    "4.5";
    object      T;
}
// * * * * * * * * * * * * * * * * * * * * * * * * * * * * * * * * * * * * * //

dimensions      [0 0 0 1 0 0 0];

internalField   nonuniform List<scalar> 
1000
(
5.76508e-72
8.463e-72
1.52218e-71
2.92518e-71
5.71964e-71
1.1224e-70
2.20258e-70
4.31829e-70
8.45641e-70
1.65397e-69
3.23095e-69
6.30364e-69
1.22831e-68
2.39047e-68
4.64636e-68
9.01981e-68
1.74879e-67
3.38634e-67
6.54904e-67
1.26496e-66
2.44022e-66
4.70147e-66
9.04668e-66
1.73858e-65
3.33696e-65
6.39671e-65
1.22465e-64
2.34161e-64
4.47162e-64
8.52831e-64
1.62446e-63
3.09029e-63
5.87131e-63
1.11408e-62
2.11126e-62
3.99587e-62
7.55309e-62
1.42587e-61
2.6883e-61
5.06194e-61
9.51913e-61
1.7878e-60
3.35335e-60
6.28171e-60
1.17521e-59
2.1958e-59
4.09739e-59
7.63588e-59
1.42117e-58
2.64162e-58
4.90376e-58
9.09123e-58
1.68326e-57
3.11252e-57
5.74786e-57
1.06007e-56
1.9525e-56
3.59155e-56
6.59785e-56
1.21047e-55
2.21786e-55
4.05829e-55
7.41619e-55
1.35346e-54
2.46683e-54
4.49014e-54
8.16218e-54
1.48176e-53
2.68642e-53
4.86402e-53
8.79509e-53
1.58821e-52
2.86418e-52
5.15838e-52
9.27786e-52
1.66649e-51
2.98937e-51
5.35521e-51
9.58058e-51
1.71169e-50
3.05407e-50
5.44188e-50
9.68358e-50
1.72084e-49
3.05393e-49
5.41245e-49
9.57952e-49
1.6932e-48
2.98872e-48
5.26836e-48
9.27425e-48
1.6304e-47
2.86233e-47
5.01831e-47
8.78627e-47
1.53625e-46
2.68243e-46
4.67738e-46
8.14489e-46
1.41637e-45
2.45964e-45
4.26555e-45
7.38727e-45
1.27761e-44
2.20656e-44
3.80574e-44
6.55489e-44
1.12744e-43
1.93654e-43
3.32168e-43
5.68974e-43
9.73257e-43
1.6625e-42
2.83594e-42
4.83092e-42
8.21792e-42
1.39602e-41
2.3682e-41
4.01182e-41
6.78674e-41
1.14651e-40
1.93413e-40
3.2583e-40
5.48138e-40
9.20836e-40
1.54478e-39
2.58788e-39
4.32925e-39
7.23224e-39
1.20649e-38
2.00985e-38
3.34345e-38
5.55409e-38
9.21341e-38
1.52622e-37
2.52463e-37
4.1703e-37
6.87896e-37
1.13309e-36
1.86376e-36
3.06126e-36
5.02106e-36
8.22381e-36
1.34504e-35
2.19673e-35
3.58263e-35
5.83457e-35
9.48846e-35
1.54086e-34
2.49868e-34
4.0461e-34
6.54245e-34
1.05639e-33
1.70327e-33
2.74233e-33
4.40894e-33
7.0782e-33
1.13472e-32
1.81647e-32
2.90363e-32
4.63477e-32
7.38735e-32
1.17577e-31
1.86865e-31
2.96555e-31
4.69951e-31
7.43655e-31
1.17506e-30
1.85404e-30
2.9211e-30
4.5956e-30
7.21948e-30
1.1325e-29
1.77392e-29
2.77459e-29
4.33341e-29
6.75811e-29
1.05241e-28
1.63648e-28
2.54097e-28
3.93959e-28
6.09911e-28
9.42852e-28
1.4554e-27
2.24327e-27
3.45258e-27
5.30597e-27
8.14227e-27
1.24763e-26
1.90891e-26
2.91636e-26
4.44894e-26
6.77687e-26
1.03076e-25
1.56546e-25
2.37402e-25
3.59485e-25
5.4354e-25
8.20611e-25
1.23708e-24
1.86213e-24
2.79882e-24
4.20042e-24
6.29451e-24
9.41853e-24
1.4072e-23
2.09932e-23
3.12716e-23
4.65128e-23
6.90786e-23
1.02439e-22
1.51681e-22
2.24257e-22
3.31062e-22
4.87999e-22
7.18248e-22
1.05554e-21
1.5489e-21
2.26942e-21
3.32009e-21
4.84987e-21
7.07382e-21
1.0302e-20
1.49806e-20
2.17511e-20
3.15337e-20
4.56467e-20
6.59758e-20
9.5214e-20
1.37201e-19
1.97402e-19
2.83587e-19
4.0678e-19
5.82601e-19
8.33146e-19
1.18962e-18
1.69602e-18
2.41431e-18
3.43154e-18
4.86992e-18
6.90065e-18
9.76322e-18
1.37921e-17
1.94537e-17
2.73973e-17
3.85253e-17
5.40902e-17
7.58268e-17
1.06135e-16
1.4833e-16
2.0698e-16
2.88376e-16
4.01162e-16
5.57201e-16
7.7274e-16
1.07e-15
1.47933e-15
2.04209e-15
2.81457e-15
3.87328e-15
5.32197e-15
7.30118e-15
1.00009e-14
1.36778e-14
1.86774e-14
2.5465e-14
3.46655e-14
4.71168e-14
6.39409e-14
8.66376e-14
1.17208e-13
1.5832e-13
2.13518e-13
2.87514e-13
3.86549e-13
5.18889e-13
6.95451e-13
9.30637e-13
1.24342e-12
1.65872e-12
2.20929e-12
2.93801e-12
3.90098e-12
5.17148e-12
6.84505e-12
9.04603e-12
1.1936e-11
1.57246e-11
2.06833e-11
2.7163e-11
3.56169e-11
4.66285e-11
6.09489e-11
7.95423e-11
1.03645e-10
1.34839e-10
1.75146e-10
2.27144e-10
2.94117e-10
3.80239e-10
4.90804e-10
6.32523e-10
8.13881e-10
1.04559e-09
1.34115e-09
1.71755e-09
2.19612e-09
2.80362e-09
3.57353e-09
4.54768e-09
5.77826e-09
7.33026e-09
9.28445e-09
1.17411e-08
1.48243e-08
1.86876e-08
2.35205e-08
2.95567e-08
3.70832e-08
4.6453e-08
5.80983e-08
7.25483e-08
9.04491e-08
1.12589e-07
1.39926e-07
1.73627e-07
2.15104e-07
2.66069e-07
3.28589e-07
4.05158e-07
4.98782e-07
6.13069e-07
7.52354e-07
9.21825e-07
1.12769e-06
1.37734e-06
1.67961e-06
2.04498e-06
2.48591e-06
3.01713e-06
3.65609e-06
4.42337e-06
5.34324e-06
6.44423e-06
7.75981e-06
9.32924e-06
1.11984e-05
1.34209e-05
1.60591e-05
1.91857e-05
2.28849e-05
2.72544e-05
3.24072e-05
3.84735e-05
4.56035e-05
5.397e-05
6.37711e-05
7.52337e-05
8.86175e-05
0.000104218
0.000122374
0.000143467
0.000167932
0.000196262
0.000229013
0.00026681
0.000310361
0.000360457
0.000417987
0.000483943
0.000559434
0.000645696
0.0007441
0.000856169
0.000983589
0.00112822
0.00129212
0.00147754
0.00168695
0.00192307
0.00218887
0.00248756
0.00282268
0.00319801
0.0036177
0.00408621
0.00460833
0.00518923
0.00583446
0.00654992
0.00734196
0.00821728
0.00918305
0.0102468
0.0114166
0.0127007
0.0141081
0.0156479
0.0173298
0.0191639
0.0211606
0.0233306
0.025685
0.0282352
0.030993
0.0339701
0.0371786
0.0406307
0.0443388
0.048315
0.0525717
0.0571209
0.0619746
0.0671444
0.0726419
0.0784778
0.0846627
0.0912063
0.0981179
0.105406
0.113078
0.121141
0.129599
0.138459
0.147723
0.157394
0.167472
0.177956
0.188846
0.200136
0.211824
0.223902
0.236361
0.249194
0.262388
0.275931
0.289809
0.304006
0.318505
0.333287
0.348333
0.363622
0.379131
0.394837
0.410716
0.426742
0.44289
0.459133
0.475444
0.491796
0.508162
0.524512
0.540821
0.55706
0.573203
0.589223
0.605093
0.620788
0.636285
0.651559
0.666587
0.681349
0.695824
0.709993
0.723839
0.737344
0.750495
0.763277
0.77568
0.787692
0.799304
0.810508
0.8213
0.831672
0.841622
0.851148
0.860249
0.868923
0.877172
0.884999
0.892405
0.899394
0.905971
0.912139
0.917904
0.923272
0.928247
0.932836
0.937045
0.940878
0.944343
0.947444
0.950186
0.952575
0.954613
0.956306
0.957657
0.958667
0.95934
0.959675
0.959675
0.95934
0.958667
0.957657
0.956306
0.954613
0.952575
0.950186
0.947444
0.944343
0.940878
0.937045
0.932836
0.928247
0.923272
0.917904
0.912139
0.905971
0.899394
0.892405
0.884999
0.877172
0.868923
0.860249
0.851148
0.841622
0.831672
0.8213
0.810508
0.799304
0.787692
0.77568
0.763277
0.750495
0.737344
0.723839
0.709993
0.695824
0.681349
0.666587
0.651559
0.636285
0.620788
0.605093
0.589223
0.573203
0.55706
0.540821
0.524512
0.508162
0.491796
0.475444
0.459133
0.44289
0.426742
0.410716
0.394837
0.379131
0.363622
0.348333
0.333287
0.318505
0.304006
0.289809
0.275931
0.262388
0.249194
0.236361
0.223902
0.211824
0.200136
0.188846
0.177956
0.167472
0.157394
0.147723
0.138459
0.129599
0.121141
0.113078
0.105406
0.0981179
0.0912063
0.0846627
0.0784778
0.0726419
0.0671444
0.0619746
0.0571209
0.0525717
0.048315
0.0443388
0.0406307
0.0371786
0.0339701
0.030993
0.0282352
0.025685
0.0233306
0.0211606
0.0191639
0.0173298
0.0156479
0.0141081
0.0127007
0.0114166
0.0102468
0.00918305
0.00821728
0.00734196
0.00654992
0.00583446
0.00518923
0.00460833
0.00408621
0.0036177
0.00319801
0.00282268
0.00248756
0.00218887
0.00192307
0.00168695
0.00147754
0.00129212
0.00112822
0.000983589
0.000856169
0.0007441
0.000645696
0.000559434
0.000483943
0.000417987
0.000360457
0.000310361
0.00026681
0.000229013
0.000196262
0.000167932
0.000143467
0.000122374
0.000104218
8.86175e-05
7.52337e-05
6.37711e-05
5.397e-05
4.56035e-05
3.84735e-05
3.24072e-05
2.72544e-05
2.28849e-05
1.91857e-05
1.60591e-05
1.34209e-05
1.11984e-05
9.32924e-06
7.75981e-06
6.44423e-06
5.34324e-06
4.42337e-06
3.65609e-06
3.01713e-06
2.48591e-06
2.04498e-06
1.67961e-06
1.37734e-06
1.12769e-06
9.21825e-07
7.52354e-07
6.13069e-07
4.98782e-07
4.05158e-07
3.28589e-07
2.66069e-07
2.15104e-07
1.73627e-07
1.39926e-07
1.12589e-07
9.04491e-08
7.25483e-08
5.80983e-08
4.6453e-08
3.70832e-08
2.95567e-08
2.35205e-08
1.86876e-08
1.48243e-08
1.17411e-08
9.28445e-09
7.33026e-09
5.77826e-09
4.54768e-09
3.57353e-09
2.80362e-09
2.19612e-09
1.71755e-09
1.34115e-09
1.04559e-09
8.13881e-10
6.32523e-10
4.90804e-10
3.80239e-10
2.94117e-10
2.27144e-10
1.75146e-10
1.34839e-10
1.03645e-10
7.95423e-11
6.09489e-11
4.66285e-11
3.56169e-11
2.7163e-11
2.06833e-11
1.57246e-11
1.1936e-11
9.04603e-12
6.84505e-12
5.17148e-12
3.90098e-12
2.93801e-12
2.20929e-12
1.65872e-12
1.24342e-12
9.30637e-13
6.95451e-13
5.18889e-13
3.86549e-13
2.87514e-13
2.13518e-13
1.5832e-13
1.17208e-13
8.66376e-14
6.39409e-14
4.71168e-14
3.46655e-14
2.5465e-14
1.86774e-14
1.36778e-14
1.00009e-14
7.30118e-15
5.32197e-15
3.87328e-15
2.81457e-15
2.04209e-15
1.47933e-15
1.07e-15
7.7274e-16
5.57201e-16
4.01162e-16
2.88376e-16
2.0698e-16
1.4833e-16
1.06135e-16
7.58268e-17
5.40902e-17
3.85253e-17
2.73973e-17
1.94537e-17
1.37921e-17
9.76322e-18
6.90065e-18
4.86992e-18
3.43154e-18
2.41431e-18
1.69602e-18
1.18962e-18
8.33146e-19
5.82601e-19
4.0678e-19
2.83587e-19
1.97402e-19
1.37201e-19
9.5214e-20
6.59758e-20
4.56467e-20
3.15337e-20
2.17511e-20
1.49806e-20
1.0302e-20
7.07382e-21
4.84987e-21
3.32009e-21
2.26942e-21
1.5489e-21
1.05554e-21
7.18248e-22
4.87999e-22
3.31062e-22
2.24257e-22
1.51681e-22
1.02439e-22
6.90786e-23
4.65128e-23
3.12716e-23
2.09932e-23
1.4072e-23
9.41853e-24
6.29451e-24
4.20042e-24
2.79882e-24
1.86213e-24
1.23708e-24
8.20611e-25
5.4354e-25
3.59485e-25
2.37402e-25
1.56546e-25
1.03076e-25
6.77687e-26
4.44894e-26
2.91636e-26
1.90891e-26
1.24763e-26
8.14227e-27
5.30597e-27
3.45258e-27
2.24327e-27
1.4554e-27
9.42852e-28
6.09911e-28
3.93959e-28
2.54097e-28
1.63648e-28
1.05241e-28
6.75811e-29
4.33341e-29
2.77459e-29
1.77392e-29
1.1325e-29
7.21948e-30
4.5956e-30
2.9211e-30
1.85404e-30
1.17506e-30
7.43655e-31
4.69951e-31
2.96555e-31
1.86865e-31
1.17577e-31
7.38735e-32
4.63477e-32
2.90363e-32
1.81647e-32
1.13472e-32
7.0782e-33
4.40894e-33
2.74233e-33
1.70327e-33
1.05639e-33
6.54245e-34
4.0461e-34
2.49868e-34
1.54086e-34
9.48846e-35
5.83457e-35
3.58263e-35
2.19673e-35
1.34504e-35
8.22381e-36
5.02106e-36
3.06126e-36
1.86376e-36
1.13309e-36
6.87896e-37
4.1703e-37
2.52463e-37
1.52622e-37
9.21341e-38
5.55409e-38
3.34345e-38
2.00985e-38
1.20649e-38
7.23224e-39
4.32925e-39
2.58788e-39
1.54478e-39
9.20836e-40
5.48138e-40
3.2583e-40
1.93413e-40
1.14651e-40
6.78674e-41
4.01182e-41
2.3682e-41
1.39602e-41
8.21792e-42
4.83092e-42
2.83594e-42
1.6625e-42
9.73257e-43
5.68974e-43
3.32168e-43
1.93654e-43
1.12744e-43
6.55489e-44
3.80574e-44
2.20656e-44
1.27761e-44
7.38727e-45
4.26555e-45
2.45964e-45
1.41637e-45
8.14489e-46
4.67738e-46
2.68243e-46
1.53625e-46
8.78627e-47
5.01831e-47
2.86233e-47
1.6304e-47
9.27425e-48
5.26836e-48
2.98872e-48
1.6932e-48
9.57952e-49
5.41245e-49
3.05393e-49
1.72084e-49
9.68358e-50
5.44188e-50
3.05407e-50
1.71169e-50
9.58058e-51
5.35521e-51
2.98937e-51
1.66649e-51
9.27786e-52
5.15838e-52
2.86418e-52
1.58821e-52
8.79509e-53
4.86402e-53
2.68642e-53
1.48176e-53
8.16218e-54
4.49014e-54
2.46683e-54
1.35346e-54
7.41619e-55
4.05829e-55
2.21786e-55
1.21047e-55
6.59785e-56
3.59155e-56
1.9525e-56
1.06007e-56
5.74786e-57
3.11252e-57
1.68326e-57
9.09123e-58
4.90376e-58
2.64162e-58
1.42117e-58
7.63588e-59
4.09739e-59
2.1958e-59
1.17521e-59
6.28171e-60
3.35335e-60
1.7878e-60
9.51913e-61
5.06194e-61
2.6883e-61
1.42587e-61
7.55309e-62
3.99587e-62
2.11126e-62
1.11408e-62
5.87131e-63
3.09029e-63
1.62446e-63
8.52831e-64
4.47162e-64
2.34161e-64
1.22465e-64
6.39671e-65
3.33696e-65
1.73858e-65
9.04668e-66
4.70147e-66
2.44022e-66
1.26496e-66
6.54904e-67
3.38634e-67
1.74879e-67
9.01981e-68
4.64636e-68
2.39047e-68
1.22831e-68
6.30364e-69
3.23095e-69
1.65397e-69
8.45641e-70
4.31829e-70
2.20258e-70
1.1224e-70
5.71964e-71
2.92518e-71
1.52218e-71
8.463e-72
5.76508e-72
)
;

boundaryField
{
    sides
    {
        type            zeroGradient;
    }
    empty
    {
        type            empty;
    }
}


// ************************************************************************* //
