/*--------------------------------*- C++ -*----------------------------------*\
| =========                 |                                                 |
| \\      /  F ield         | OpenFOAM: The Open Source CFD Toolbox           |
|  \\    /   O peration     | Version:  2312                                  |
|   \\  /    A nd           | Website:  www.openfoam.com                      |
|    \\/     M anipulation  |                                                 |
\*---------------------------------------------------------------------------*/
FoamFile
{
    version     2.0;
    format      ascii;
    arch        "LSB;label=32;scalar=64";
    class       volScalarField;
    location    "4.6";
    object      T;
}
// * * * * * * * * * * * * * * * * * * * * * * * * * * * * * * * * * * * * * //

dimensions      [0 0 0 1 0 0 0];

internalField   nonuniform List<scalar> 
1000
(
0.490472
0.453396
0.472898
0.457209
0.487576
0.499039
0.527786
0.557965
0.571156
0.602869
0.593074
0.608937
0.578576
0.567871
0.526467
0.488316
0.446286
0.389007
0.352275
0.289734
0.258215
0.204485
0.174693
0.138852
0.108316
0.0914313
0.0617053
0.0574858
0.033679
0.0326185
0.019833
0.0147208
0.0139919
0.00363687
0.010432
-0.000652618
0.00596704
0.000293212
0.000681955
0.00321938
-0.00324134
0.00471505
-0.00389103
0.00325529
-0.0015279
5.58278e-05
0.0013902
-0.00208611
0.0020677
-0.00115374
-0.000420821
0.00242536
-0.00447084
0.00623592
-0.00746745
0.00808896
-0.00819291
0.00803347
-0.00795376
0.00830392
-0.00934843
0.011199
-0.0137834
0.0168631
-0.0200923
0.0231043
-0.0256019
0.0274249
-0.0285789
0.029214
-0.0295621
0.0298496
-0.0302122
0.0306369
-0.0309507
0.0308602
-0.0300309
0.0281853
-0.0251884
0.0210978
-0.0161602
0.0107586
-0.00532401
0.000240959
0.00422483
-0.00795527
0.0109584
-0.013307
0.0150628
-0.0162142
0.0166542
-0.0162086
0.0147059
-0.0120665
0.00837795
-0.00392774
-0.00082288
0.00531927
-0.00902573
0.0115358
-0.0126472
0.0123812
-0.0109437
0.00864823
-0.00582971
0.0027802
0.000274078
-0.00315505
0.00569217
-0.00768741
0.00891151
-0.00914277
0.00823912
-0.00621636
0.00329796
9.12107e-05
-0.00339568
0.00604871
-0.00760495
0.00784436
-0.00681466
0.00480135
-0.00223957
-0.000399139
0.00270696
-0.00439927
0.00532609
-0.0054488
0.00480727
-0.00350022
0.00168735
0.000396659
-0.00243874
0.00407652
-0.00496721
0.00488177
-0.0037911
0.00190634
0.000352404
-0.002458
0.00391962
-0.00441953
0.00389652
-0.00254857
0.000758365
0.00102711
-0.00241814
0.00316651
-0.00319425
0.00257384
-0.00148253
0.000155164
0.00115152
-0.00218612
0.00273297
-0.00265389
0.00193577
-0.000723023
-0.00069054
0.00192512
-0.00262394
0.00257296
-0.00178387
0.000501871
0.000871537
-0.00191449
0.00232757
-0.00202826
0.00116319
-3.95782e-05
-0.000990349
0.00164381
-0.0017807
0.00141935
-0.000704378
-0.000149506
0.000914831
-0.00139831
0.00147727
-0.00112773
0.000440291
0.000388472
-0.00110027
0.00145343
-0.00131292
0.000714186
0.000134124
-0.000920452
0.00135083
-0.00126903
0.000721611
6.33786e-05
-0.000774934
0.00114915
-0.00107191
0.000611232
2.77926e-05
-0.00059715
0.000903028
-0.000866896
0.000534864
-4.42544e-05
-0.000430663
0.000733214
-0.000767392
0.000524558
-8.94873e-05
-0.000380229
0.000703822
-0.000746068
0.000479624
-8.846e-06
-0.000465409
0.000732221
-0.00067031
0.000310037
0.000177875
-0.000564733
0.00067601
-0.000474665
7.28535e-05
0.000331146
-0.000553951
0.000511889
-0.000249149
-9.7299e-05
0.000369995
-0.000461022
0.000349597
-9.867e-05
-0.000179066
0.00036766
-0.000390897
0.00024063
1.785e-05
-0.000268566
0.000392826
-0.000325984
9.54588e-05
0.000185069
-0.000369923
0.00035952
-0.000158511
-0.000122999
0.00032996
-0.000350821
0.000181009
7.71489e-05
-0.000277113
0.000313756
-0.000179773
-3.82952e-05
0.00021668
-0.000265481
0.00017247
3.74076e-07
-0.000157951
0.000223067
-0.000170964
3.51105e-05
0.000112914
-0.00019802
0.000176833
-5.98186e-05
-9.09355e-05
0.000191444
-0.000181912
6.45274e-05
9.26548e-05
-0.000193707
0.000174704
-4.69186e-05
-0.000107981
0.000190547
-0.000149514
1.54857e-05
0.00012128
-0.00017294
0.000111972
1.46083e-05
-0.000121584
0.000143844
-7.57455e-05
-3.20146e-05
0.000110331
-0.000115532
5.16631e-05
3.78898e-05
-9.91694e-05
9.82004e-05
-3.80602e-05
-4.41063e-05
9.80067e-05
-8.93885e-05
2.22549e-05
6.06953e-05
-0.000103588
7.53052e-05
6.21666e-06
-8.37113e-05
0.000100902
-4.48591e-05
-4.28661e-05
9.69557e-05
-7.81256e-05
2.86041e-06
7.05357e-05
-8.79119e-05
4.0101e-05
3.30686e-05
-7.63162e-05
6.11922e-05
-4.15778e-06
-5.02933e-05
6.45134e-05
-3.2931e-05
-1.8381e-05
5.30583e-05
-4.92153e-05
1.18659e-05
3.22961e-05
-5.2798e-05
3.5298e-05
8.16429e-06
-4.61223e-05
4.95142e-05
-1.43452e-05
-3.29094e-05
5.44525e-05
-3.18882e-05
-1.6984e-05
5.16188e-05
-4.28731e-05
-1.49602e-06
4.32735e-05
-4.7179e-05
1.14431e-05
3.17728e-05
-4.57028e-05
2.07932e-05
1.91456e-05
-3.98943e-05
2.64073e-05
6.89978e-06
-3.13746e-05
2.87562e-05
-3.9958e-06
-2.16704e-05
2.86406e-05
-1.30224e-05
-1.20581e-05
2.69429e-05
-1.99794e-05
-3.49204e-06
2.44432e-05
-2.48578e-05
3.4146e-06
2.17077e-05
-2.77485e-05
8.37808e-06
1.90459e-05
-2.87978e-05
1.14156e-05
1.65288e-05
-2.82049e-05
1.28009e-05
1.40572e-05
-2.62457e-05
1.30005e-05
1.14625e-05
-2.33004e-05
1.25839e-05
8.61907e-06
-1.98573e-05
1.21111e-05
5.53963e-06
-1.6475e-05
1.20105e-05
2.425e-06
-1.36959e-05
1.24734e-05
-3.55853e-07
-1.19261e-05
1.34003e-05
-2.36069e-06
-1.13171e-05
1.44295e-05
-3.22439e-06
-1.16974e-05
1.5058e-05
-2.81668e-06
-1.25989e-05
1.48328e-05
-1.34179e-06
-1.33966e-05
1.355e-05
6.79879e-07
-1.35329e-05
1.13788e-05
2.57058e-06
-1.27481e-05
8.83736e-06
3.7546e-06
-1.12124e-05
6.59674e-06
4.01499e-06
-9.47094e-06
5.1759e-06
3.61518e-06
-8.19031e-06
4.66459e-06
3.18989e-06
-7.80117e-06
4.63433e-06
3.4161e-06
-8.21755e-06
4.32978e-06
4.60889e-06
-8.81556e-06
3.08464e-06
6.4718e-06
-8.7376e-06
7.4917e-07
8.18953e-06
-7.3926e-06
-2.14429e-06
8.86822e-06
-4.85838e-06
-4.63703e-06
8.08845e-06
-1.89326e-06
-5.91727e-06
6.20207e-06
5.1673e-07
-5.8502e-06
4.11557e-06
1.81262e-06
-5.06078e-06
2.6483e-06
2.24318e-06
-4.4398e-06
1.91588e-06
2.62426e-06
-4.39761e-06
1.25865e-06
3.59124e-06
-4.47363e-06
-1.39666e-07
4.93337e-06
-3.7121e-06
-2.39832e-06
5.6428e-06
-1.582e-06
-4.62152e-06
4.75855e-06
1.35086e-06
-5.52214e-06
2.32103e-06
3.70528e-06
-4.53368e-06
-4.92371e-07
4.39376e-06
-2.37225e-06
-2.30663e-06
3.55036e-06
-4.0732e-07
-2.72557e-06
2.29929e-06
6.16245e-07
-2.52276e-06
1.52052e-06
1.16046e-06
-2.56874e-06
9.4177e-07
2.06352e-06
-2.67309e-06
-3.22411e-07
3.20257e-06
-1.79804e-06
-2.31715e-06
3.34873e-06
4.38446e-07
-3.70829e-06
1.63467e-06
2.80248e-06
-3.10255e-06
-1.06536e-06
3.48517e-06
-7.9778e-07
-2.76725e-06
2.11749e-06
1.34158e-06
-2.50606e-06
1.92633e-07
1.96016e-06
-1.27542e-06
-8.07543e-07
1.57855e-06
-4.5493e-07
-1.08575e-06
1.35564e-06
5.34436e-08
-1.60231e-06
1.11323e-06
1.15185e-06
-2.01226e-06
-1.8855e-07
2.37071e-06
-9.65162e-07
-2.10983e-06
1.96535e-06
1.34109e-06
-2.55007e-06
-3.07209e-07
2.60195e-06
-7.04113e-07
-2.15969e-06
1.4443e-06
1.38524e-06
-1.76312e-06
-5.0404e-07
1.63215e-06
-2.60567e-07
-1.13345e-06
7.41008e-07
4.23149e-07
-8.56169e-07
3.15967e-07
6.16442e-07
-9.1957e-07
-1.07146e-07
1.27452e-06
-5.41446e-07
-1.33456e-06
1.18808e-06
1.11906e-06
-1.71037e-06
-6.9866e-07
2.02524e-06
1.73632e-07
-2.09777e-06
3.49346e-07
1.93939e-06
-7.7707e-07
-1.59788e-06
1.04345e-06
1.14305e-06
-1.1158e-06
-6.51428e-07
9.94446e-07
1.9301e-07
-7.07085e-07
1.7836e-07
3.00215e-07
-4.30086e-07
1.70423e-07
5.51701e-07
-6.48627e-07
-5.52342e-07
1.08462e-06
4.55962e-07
-1.43953e-06
-2.95465e-07
1.68738e-06
1.06798e-07
-1.81508e-06
7.62294e-08
1.82085e-06
-2.25949e-07
-1.71181e-06
3.23432e-07
1.5014e-06
-3.59714e-07
-1.20691e-06
3.35774e-07
8.4771e-07
-2.61488e-07
-4.44058e-07
1.53774e-07
1.66488e-08
-3.41359e-08
4.13338e-07
-7.42053e-08
-8.2394e-07
1.49427e-07
1.1922e-06
-1.74275e-07
-1.49436e-06
1.39052e-07
1.70688e-06
-4.41131e-08
-1.80827e-06
-9.85393e-08
1.7821e-06
2.65009e-07
-1.62063e-06
-4.21087e-07
1.32882e-06
5.26006e-07
-9.27826e-07
-5.38472e-07
4.56786e-07
4.2462e-07
2.80743e-08
-1.66979e-07
-4.58228e-07
-2.27139e-07
7.61993e-07
7.20012e-07
-8.77658e-07
-1.24306e-06
7.6896e-07
1.70371e-06
-4.39815e-07
-2.00072e-06
-5.59643e-08
2.04686e-06
6.14711e-07
-1.79558e-06
-1.09656e-06
1.26502e-06
1.35396e-06
-5.51116e-07
-1.27181e-06
-1.78903e-07
8.10726e-07
7.17841e-07
-3.98319e-08
-8.73543e-07
-8.56446e-07
5.36768e-07
1.61009e-06
2.58542e-07
-1.94228e-06
-1.30899e-06
1.66398e-06
2.27301e-06
-7.73476e-07
-2.76842e-06
-4.92082e-07
2.51881e-06
1.69155e-06
-1.50094e-06
-2.31766e-06
2.39435e-08
2.01071e-06
1.32397e-06
-7.70384e-07
-1.88481e-06
-9.44699e-07
1.24475e-06
2.32585e-06
4.79023e-07
-2.55035e-06
-2.55196e-06
1.23712e-06
3.86376e-06
1.2055e-06
-3.47639e-06
-3.59781e-06
1.24913e-06
4.50233e-06
1.84026e-06
-3.08136e-06
-4.01543e-06
-1.62528e-07
3.68718e-06
3.34189e-06
-6.44745e-07
-4.1441e-06
-3.37067e-06
1.45308e-06
5.4089e-06
3.40117e-06
-3.29516e-06
-6.95357e-06
-2.31648e-06
5.84633e-06
7.59015e-06
1.98427e-07
-7.88107e-06
-7.11438e-06
1.74796e-06
8.86275e-06
6.60312e-06
-2.64045e-06
-9.57629e-06
-7.19177e-06
2.82764e-06
1.11899e-05
8.95891e-06
-3.28573e-06
-1.40096e-05
-1.11436e-05
4.35536e-06
1.72865e-05
1.32716e-05
-5.1977e-06
-2.00687e-05
-1.58995e-05
4.348e-06
2.2012e-05
2.02805e-05
-6.01827e-07
-2.32669e-05
-2.73415e-05
-6.66308e-06
2.35256e-05
3.67909e-05
1.78526e-05
-2.09979e-05
-4.67201e-05
-3.35122e-05
1.20627e-05
5.33969e-05
5.37404e-05
8.02405e-06
-5.08162e-05
-7.60984e-05
-4.30583e-05
3.03024e-05
9.22134e-05
9.18037e-05
1.80983e-05
-8.45867e-05
-0.000141217
-9.90977e-05
2.7607e-05
0.000158371
0.000197023
9.94553e-05
-8.90473e-05
-0.000253863
-0.000278046
-0.000117506
0.000159732
0.000397142
0.000431477
0.000193574
-0.000230039
-0.000619723
-0.000729494
-0.000426218
0.000214665
0.00091336
0.00129668
0.0010716
0.00018765
-0.0010861
-0.002217
-0.00259608
-0.00179797
0.000186287
0.00284467
0.00522613
0.00620047
0.00482797
0.000738939
-0.00557897
-0.0126665
-0.0181931
-0.0192616
-0.012852
0.0036955
0.0322597
0.0736552
0.127521
0.192379
0.265846
0.344945
0.426461
0.507285
0.584688
0.656491
0.72116
0.777811
0.82616
0.866422
0.899176
0.925234
0.945515
0.960967
0.972499
0.980942
0.987013
0.991303
0.994273
0.996285
0.997619
0.998493
0.999066
0.999441
0.999676
0.999811
0.999879
0.999917
0.99995
0.999984
1.00001
1.00001
0.999993
0.999976
0.999978
1
1.00002
1.00003
1.00001
0.999975
0.999963
0.999983
1.00002
1.00005
1.00003
0.999989
0.999948
0.999946
0.999991
1.00005
1.00008
1.00004
0.999969
0.999906
0.999908
0.999983
1.00009
1.00014
1.0001
0.999973
0.999843
0.999804
0.999899
1.00009
1.00025
1.00028
1.00012
0.999839
0.999601
0.999569
0.999808
1.00023
1.00062
1.00073
1.00043
0.999788
0.999087
0.998701
0.998926
0.999813
1.00109
1.00222
1.00259
1.0018
0.999814
0.997158
0.994776
0.993798
0.995169
0.99926
1.00558
1.01267
1.01819
1.01926
1.01285
0.996307
0.967745
0.926346
0.872476
0.807617
0.734154
0.65506
0.573543
0.492712
0.415307
0.343507
0.278844
0.222196
0.173841
0.133573
0.100817
0.0747659
0.0544917
0.03904
0.0275
0.0190497
0.0129793
0.00869959
0.00573715
0.00372307
0.00237776
0.00149465
0.000924811
0.000563298
0.000337767
0.000199389
0.000115877
6.62977e-05
3.73416e-05
2.07041e-05
1.12993e-05
6.06925e-06
3.20808e-06
1.66842e-06
8.53544e-07
4.29434e-07
2.12415e-07
1.0326e-07
4.93122e-08
2.3122e-08
1.06384e-08
4.79942e-09
2.12114e-09
9.17348e-10
3.87692e-10
1.59833e-10
6.41336e-11
2.49705e-11
9.39439e-12
3.39439e-12
1.16686e-12
3.75606e-13
1.09805e-13
2.70939e-14
4.25836e-15
-7.02178e-16
-1.09285e-15
-6.82939e-16
-3.35141e-16
-1.43728e-16
-5.56399e-17
-1.95631e-17
-6.16708e-18
-1.66768e-18
-3.33616e-19
-9.65641e-21
3.68953e-20
2.62369e-20
1.29278e-20
5.30854e-21
1.89588e-21
5.86659e-22
1.48915e-22
2.44537e-23
-2.54868e-24
-4.69319e-24
-2.73071e-24
-1.18787e-24
-4.30452e-25
-1.3128e-25
-3.16531e-26
-4.30182e-27
1.0683e-27
1.18374e-27
6.14734e-28
2.43807e-28
7.92873e-29
2.05686e-29
3.45552e-30
-2.58648e-31
-5.55379e-31
-3.08077e-31
-1.23273e-31
-3.94043e-32
-9.75216e-33
-1.40625e-33
2.52973e-34
3.06758e-34
1.53318e-34
5.64367e-35
1.62618e-35
3.32934e-36
1.67003e-37
-2.64196e-37
-1.70676e-37
-6.98366e-38
-2.17766e-38
-4.99702e-39
-5.32843e-40
2.26015e-40
1.83806e-40
7.97957e-41
2.55772e-41
6.00134e-42
6.944e-43
-2.33477e-43
-2.00456e-43
-8.65969e-44
-2.71371e-44
-6.06448e-45
-5.64611e-46
3.03733e-46
2.21172e-46
8.90632e-47
2.59105e-47
5.06501e-48
1.4816e-49
-4.195e-49
-2.37135e-49
-8.46359e-50
-2.17009e-50
-2.08792e-51
)
;

boundaryField
{
    sides
    {
        type            zeroGradient;
    }
    empty
    {
        type            empty;
    }
}


// ************************************************************************* //
