/*--------------------------------*- C++ -*----------------------------------*\
| =========                 |                                                 |
| \\      /  F ield         | OpenFOAM: The Open Source CFD Toolbox           |
|  \\    /   O peration     | Version:  2312                                  |
|   \\  /    A nd           | Website:  www.openfoam.com                      |
|    \\/     M anipulation  |                                                 |
\*---------------------------------------------------------------------------*/
FoamFile
{
    version     2.0;
    format      ascii;
    arch        "LSB;label=32;scalar=64";
    class       volScalarField;
    location    "1.7";
    object      T;
}
// * * * * * * * * * * * * * * * * * * * * * * * * * * * * * * * * * * * * * //

dimensions      [0 0 0 1 0 0 0];

internalField   nonuniform List<scalar> 
1000
(
0
0
0
0
0
0
0
0
0
0
0
0
0
0
0
0
0
0
0
0
0
0
0
0
0
0
0
0
0
0
0
0
0
0
0
0
0
0
0
0
0
0
0
0
0
0
0
0
0
0
0
0
0
0
0
0
0
0
0
0
0
0
0
0
0
0
0
0
0
0
0
-4.94066e-324
2.12448e-322
-3.45352e-321
5.70004e-320
-9.40736e-319
1.54692e-317
-2.53457e-316
4.1379e-315
-6.73115e-314
1.09101e-312
-1.76196e-311
2.83522e-310
-4.54565e-309
7.26143e-308
-1.15574e-306
1.83277e-305
-2.89574e-304
4.55841e-303
-7.14931e-302
1.11714e-300
-1.73918e-299
2.69752e-298
-4.16839e-297
6.41726e-296
-9.84249e-295
1.50394e-293
-2.28941e-292
3.472e-291
-5.24557e-290
7.89515e-289
-1.1838e-287
1.76825e-286
-2.63117e-285
3.90025e-284
-5.7593e-283
8.4718e-282
-1.24139e-280
1.812e-279
-2.63467e-278
3.81598e-277
-5.50546e-276
7.91195e-275
-1.13259e-273
1.61493e-272
-2.29364e-271
3.24475e-270
-4.57212e-269
6.41696e-268
-8.97039e-267
1.24899e-265
-1.73208e-264
2.39239e-263
-3.29116e-262
4.50933e-261
-6.15342e-260
8.3629e-259
-1.13195e-257
1.5259e-256
-2.04855e-255
2.73894e-254
-3.64694e-253
4.83594e-252
-6.38607e-251
8.39809e-250
-1.09981e-248
1.43429e-247
-1.86268e-246
2.40885e-245
-3.10206e-244
3.97788e-243
-5.07937e-242
6.4583e-241
-8.17657e-240
1.03077e-238
-1.29386e-237
1.61711e-236
-2.01239e-235
2.49345e-234
-3.07608e-233
3.77831e-232
-4.62055e-231
5.62574e-230
-6.81946e-229
8.22996e-228
-9.88818e-227
1.18277e-225
-1.40845e-224
1.66968e-223
-1.97048e-222
2.31498e-221
-2.7074e-220
3.15198e-219
-3.65284e-218
4.21395e-217
-4.83894e-216
5.53104e-215
-6.29292e-214
7.12655e-213
-8.03304e-212
9.01254e-211
-1.00641e-209
1.11854e-208
-1.23729e-207
1.36216e-206
-1.4925e-205
1.62749e-204
-1.76618e-203
1.90746e-202
-2.05009e-201
2.19269e-200
-2.33378e-199
2.4718e-198
-2.60512e-197
2.7321e-196
-2.85108e-195
2.96045e-194
-3.05867e-193
3.14431e-192
-3.21608e-191
3.27286e-190
-3.31374e-189
3.33802e-188
-3.34526e-187
3.33528e-186
-3.30815e-185
3.26422e-184
-3.2041e-183
3.12862e-182
-3.03885e-181
2.93607e-180
-2.82172e-179
2.69737e-178
-2.56468e-177
2.42541e-176
-2.28129e-175
2.13409e-174
-1.98549e-173
1.8371e-172
-1.69044e-171
1.54687e-170
-1.40761e-169
1.27373e-168
-1.1461e-167
1.02543e-166
-9.12254e-166
8.06936e-165
-7.09679e-164
6.20543e-163
-5.39455e-162
4.66228e-161
-4.00578e-160
3.42143e-159
-2.905e-158
2.45181e-157
-2.05692e-156
1.71522e-155
-1.42161e-154
1.17107e-153
-9.58766e-153
7.80107e-152
-6.30798e-151
5.06879e-150
-4.04744e-149
3.21145e-148
-2.53192e-147
1.98339e-146
-1.54368e-145
1.19366e-144
-9.16982e-144
6.99803e-143
-5.30528e-142
3.9952e-141
-2.98845e-140
2.22029e-139
-1.63837e-138
1.20068e-137
-8.73855e-137
6.31572e-136
-4.53268e-135
3.2301e-134
-2.28549e-133
1.60554e-132
-1.11975e-131
7.75266e-131
-5.32827e-130
3.63497e-129
-2.46133e-128
1.65411e-127
-1.1032e-126
7.3016e-126
-4.79536e-125
3.1249e-124
-2.02037e-123
1.29591e-122
-8.2459e-122
5.20458e-121
-3.25824e-120
2.02301e-119
-1.24564e-118
7.60558e-118
-4.60446e-117
2.76371e-116
-1.64451e-115
9.69986e-115
-5.67075e-114
3.28561e-113
-1.88647e-112
1.07323e-111
-6.04919e-111
3.37765e-110
-1.86807e-109
1.02325e-108
-5.55035e-108
2.98096e-107
-1.58499e-106
8.34207e-106
-4.34541e-105
2.23991e-104
-1.14237e-103
5.76342e-103
-2.87594e-102
1.41914e-101
-6.92357e-101
3.33895e-100
-1.59137e-99
7.49403e-99
-3.48612e-98
1.60155e-97
-7.26437e-97
3.2523e-96
-1.43678e-95
6.26114e-95
-2.69052e-94
1.13966e-93
-4.75667e-93
1.95537e-92
-7.91318e-92
3.15101e-91
-1.23391e-90
4.74877e-90
-1.79494e-89
6.65824e-89
-2.42177e-88
8.62873e-88
-3.00826e-87
1.02487e-86
-3.40675e-86
1.10288e-85
-3.4694e-85
1.05752e-84
-3.11207e-84
8.79856e-84
-2.37353e-83
6.04689e-83
-1.43054e-82
3.04518e-82
-5.41968e-82
6.137e-82
6.35274e-82
-7.11444e-81
2.96066e-80
-9.25233e-80
2.37127e-79
-4.89758e-79
6.92356e-79
5.65903e-80
-4.78041e-78
2.10048e-77
-6.19622e-77
1.35668e-76
-1.88755e-76
-6.36132e-77
1.48995e-75
-5.89595e-75
1.51431e-74
-2.50766e-74
6.24203e-75
1.34702e-73
-5.83208e-73
1.4734e-72
-2.12794e-72
-9.94508e-73
1.72987e-71
-6.01213e-71
1.19575e-70
-7.22163e-71
-4.80176e-70
2.21911e-69
-5.08945e-69
4.53473e-69
1.54293e-68
-8.24965e-68
1.92339e-67
-1.54579e-67
-6.56386e-67
3.16211e-66
-6.51844e-66
2.14779e-66
3.27595e-65
-1.18481e-64
1.77813e-64
1.59153e-64
-1.56849e-63
3.84731e-63
-2.20784e-63
-1.64955e-62
6.18922e-62
-8.17007e-62
-1.34104e-61
8.66336e-61
-1.62902e-60
-6.30877e-61
1.13396e-59
-2.67372e-59
4.13878e-60
1.46009e-58
-3.99889e-58
1.61589e-58
1.92513e-57
-5.67583e-57
2.59626e-57
2.66236e-56
-7.75086e-56
2.59629e-56
3.85894e-55
-1.01206e-54
2.22693e-56
5.71952e-54
-1.22883e-53
-6.76066e-54
8.33954e-53
-1.29955e-52
-2.12281e-52
1.14209e-51
-9.87353e-52
-4.53609e-51
1.38156e-50
4.06188e-52
-7.7331e-50
1.31004e-49
2.05712e-49
-1.06051e-48
5.82568e-49
4.88754e-48
-1.07171e-47
-1.04881e-47
7.36415e-47
-4.87308e-47
-3.2993e-46
7.11935e-46
8.30112e-46
-4.88853e-45
1.69089e-45
2.40161e-44
-3.73979e-44
-8.45272e-44
2.91832e-43
1.32103e-43
-1.67331e-42
9.88103e-43
7.80061e-42
-1.24443e-41
-2.94219e-41
9.00067e-41
7.77591e-41
-5.26318e-40
-1.35494e-42
2.7028e-39
-1.85226e-39
-1.2587e-38
1.72061e-38
5.38514e-38
-1.16599e-37
-2.11879e-37
6.88101e-37
7.5747e-37
-3.75212e-36
-2.37186e-36
1.94655e-35
5.8098e-36
-9.77992e-35
-5.47458e-36
4.81659e-34
-5.41574e-35
-2.34512e-33
4.97332e-34
1.13507e-32
-2.76223e-33
-5.47634e-32
1.12694e-32
2.63326e-31
-2.62859e-32
-1.25803e-30
-9.20835e-32
5.9355e-30
1.85862e-30
-2.74039e-29
-1.71325e-29
1.2219e-28
1.25528e-28
-5.15886e-28
-8.08334e-28
1.99449e-27
4.7273e-27
-6.57306e-27
-2.53488e-26
1.4482e-26
1.24157e-25
1.82983e-26
-5.45773e-25
-4.86026e-25
2.06285e-24
3.82663e-24
-5.94094e-24
-2.20925e-23
6.1814e-24
1.02727e-22
7.2604e-23
-3.74597e-22
-7.02692e-22
8.68977e-22
3.98131e-21
7.80923e-22
-1.61002e-20
-2.2594e-20
4.04754e-20
1.46446e-19
1.92197e-20
-5.8785e-19
-8.78209e-19
1.22154e-18
5.36916e-18
2.77115e-18
-1.79083e-17
-3.84828e-17
1.32376e-17
1.76741e-16
2.31499e-16
-3.28947e-16
-1.47589e-15
-1.20968e-15
3.74188e-15
1.13862e-14
5.81662e-15
-3.38047e-14
-8.55569e-14
-3.12626e-14
2.69089e-13
6.45854e-13
2.57438e-13
-1.92927e-12
-4.92149e-12
-2.98917e-12
1.20666e-11
3.69147e-11
3.55394e-11
-5.73902e-11
-2.57836e-10
-3.74481e-10
7.32978e-11
1.51496e-09
3.30039e-09
2.48217e-09
-5.65858e-09
-2.25158e-08
-3.59112e-08
-1.18225e-08
9.36503e-08
2.80107e-07
4.07143e-07
1.21187e-07
-1.04306e-06
-3.19506e-06
-5.19968e-06
-3.74252e-06
6.58229e-06
3.04717e-05
6.48651e-05
8.79294e-05
4.84107e-05
-0.000134492
-0.000545055
-0.00120144
-0.00193156
-0.00219999
-0.00091684
0.0037132
0.0142256
0.0337423
0.0655909
0.112717
0.176984
0.258519
0.35528
0.463013
0.575651
0.686136
0.787488
0.873906
0.941623
0.989361
1.01828
1.03145
1.03312
1.02775
1.01932
1.01081
1.00399
0.999572
0.997427
0.996984
0.997531
0.998445
0.999305
0.999907
1.00022
1.0003
1.00024
1.00015
1.00006
0.999999
0.999974
0.999972
0.999981
0.999991
0.999998
1
1
1
1
1
1
1
1
1
1
1
1
1
1
1
1
1
1
1
1
1
1
1
1
1
1
1
1
1
1
1
1
1
1
1
1
1
1
1
1
1
1
1
1
1
1
1
1.00001
1
0.999993
0.99997
0.999935
0.999912
0.999952
1.00013
1.00055
1.0012
1.00193
1.0022
1.00092
0.996287
0.985774
0.966258
0.934409
0.887283
0.823016
0.741481
0.64472
0.536987
0.424349
0.313864
0.212512
0.126094
0.0583771
0.0106391
-0.0182751
-0.0314532
-0.0331184
-0.0277499
-0.0193226
-0.0108089
-0.00399401
0.000428062
0.00257338
0.0030164
0.00246923
0.00155496
0.000694787
9.29356e-05
-0.000216052
-0.00029609
-0.00024405
-0.000145733
-5.61592e-05
1.35974e-06
2.60322e-05
2.80347e-05
1.94058e-05
9.08356e-06
1.59428e-06
-2.06635e-06
-2.81617e-06
-2.0871e-06
-1.01919e-06
-2.11831e-07
1.85756e-07
2.68247e-07
1.94837e-07
8.95984e-08
1.39499e-08
-1.99725e-08
-2.43297e-08
-1.58354e-08
-6.11246e-09
-2.4231e-11
2.15842e-09
1.99871e-09
1.07204e-09
2.78772e-10
-1.18157e-10
-2.00906e-10
-1.38328e-10
-5.44106e-11
-1.51625e-12
1.66624e-11
1.48665e-11
7.31276e-12
1.42294e-12
-1.13868e-12
-1.40683e-12
-8.13089e-13
-2.3286e-13
6.09233e-14
1.21454e-13
7.98875e-14
2.75246e-14
-2.0239e-15
-9.83981e-15
-7.17742e-15
-2.73806e-15
-3.71256e-17
7.66768e-16
6.01922e-16
2.41585e-16
1.27422e-17
-5.86263e-17
-4.77026e-17
-1.93471e-17
-1.18055e-18
4.44939e-18
3.59409e-18
1.41944e-18
6.23182e-20
-3.35363e-19
-2.57633e-19
-9.54092e-20
-8.09903e-23
2.48696e-20
1.75054e-20
5.82347e-21
-4.38922e-22
-1.78784e-21
-1.11902e-21
-3.15779e-22
6.5056e-23
1.22626e-22
6.65424e-23
1.44611e-23
-6.61875e-24
-7.90601e-24
-3.6209e-24
-4.79722e-25
5.51169e-25
4.72416e-25
1.75623e-25
2.19418e-27
-3.95985e-26
-2.57675e-26
-7.21366e-27
1.35973e-27
2.50239e-27
1.25716e-27
2.17729e-28
-1.47491e-28
-1.39676e-28
-5.30074e-29
-1.52417e-30
1.0732e-29
6.83581e-30
1.78699e-30
-4.07254e-31
-6.28406e-31
-2.86692e-31
-3.58698e-32
3.96604e-32
3.08642e-32
9.71929e-33
-7.90354e-34
-2.479e-33
-1.26751e-33
-2.18231e-34
1.34746e-34
1.21287e-34
4.15047e-35
-1.02645e-36
-8.91629e-36
-4.79273e-36
-9.01272e-37
4.48088e-37
4.25751e-37
1.46881e-37
-2.45759e-39
-2.98897e-38
-1.58102e-38
-2.82501e-39
1.50309e-39
1.34825e-39
4.37646e-40
-2.10728e-41
-9.3573e-41
-4.56558e-41
-6.65846e-42
4.97383e-42
3.83724e-42
1.08802e-42
-1.37116e-43
-2.69494e-43
-1.14214e-43
-1.00127e-44
1.54302e-44
9.67156e-45
2.16531e-45
-6.21342e-46
-6.96845e-46
-2.41095e-46
1.39996e-48
4.2817e-47
2.10652e-47
3.0291e-48
-2.13703e-48
-1.57261e-48
-4.06028e-49
6.93943e-50
1.02699e-49
3.81391e-50
1.17216e-51
-5.82656e-51
-2.99552e-51
-4.65951e-52
2.73574e-52
2.0696e-52
5.31745e-53
-8.73397e-54
-1.27766e-53
-4.57844e-54
-7.61081e-56
7.01726e-55
3.38258e-55
4.45448e-56
-3.3268e-56
-2.23678e-56
-5.00456e-57
1.23081e-57
1.34502e-57
4.18755e-58
-1.95724e-59
-7.37033e-59
-3.01353e-59
-2.1822e-60
3.64021e-60
1.95512e-60
3.15124e-61
-1.56564e-61
-1.16668e-61
-2.78085e-62
5.2736e-63
6.4565e-63
2.03133e-63
-7.33726e-65
-3.31623e-64
-1.32504e-64
-8.48944e-66
1.56996e-65
7.95788e-66
1.12181e-66
-6.71889e-67
-4.4661e-67
-9.26311e-68
2.47391e-68
2.35976e-68
6.38764e-69
-6.65154e-70
-1.17742e-69
-3.96188e-70
4.8189e-73
5.54423e-71
2.27886e-71
1.69025e-72
-2.45196e-72
-1.23466e-72
-1.67174e-73
1.00693e-73
6.35669e-74
1.20314e-74
-3.74527e-75
-3.12649e-75
-7.50163e-76
1.18616e-76
1.4735e-76
4.28036e-77
-2.55656e-78
-6.66378e-78
-2.29086e-78
-2.65162e-80
2.8917e-79
1.1655e-79
7.89418e-81
-1.2021e-80
-5.68272e-81
-6.52447e-82
4.76908e-82
2.6696e-82
4.1724e-83
-1.79273e-83
-1.21281e-83
-2.35741e-84
6.29919e-85
5.34276e-85
1.23198e-85
-2.01231e-86
-2.28676e-86
-6.08517e-87
5.45868e-88
9.5237e-88
2.87525e-88
-9.69614e-90
-3.86367e-89
-1.30943e-89
-1.44708e-91
1.52809e-90
5.77692e-91
2.78803e-92
-5.89512e-92
-2.47802e-92
-1.98547e-93
2.219e-93
1.03635e-93
1.11985e-94
-8.15022e-95
-4.2348e-95
-5.63285e-96
2.92042e-96
1.69377e-96
2.63624e-97
-1.02041e-97
-6.64054e-98
-1.17142e-98
3.47369e-99
2.55523e-99
4.99848e-100
-1.1506e-100
-9.66083e-101
-2.06264e-101
3.7011e-102
3.59239e-102
8.27034e-103
-1.1528e-103
-1.315e-103
-3.23294e-104
3.46179e-105
4.74235e-105
1.23516e-105
-9.9545e-107
-1.68623e-106
-4.62087e-107
2.71019e-108
5.91564e-108
1.69531e-108
-6.8432e-110
-2.04893e-109
-6.10689e-110
1.53304e-111
7.01063e-111
2.162e-111
-2.68193e-113
-2.37098e-112
-7.52843e-113
1.45187e-115
7.92974e-114
2.58019e-114
1.69828e-116
-2.62388e-115
-8.70829e-116
-1.16009e-117
8.5931e-117
2.89563e-117
5.33945e-119
-2.78625e-118
-9.48942e-119
-2.09253e-120
8.94728e-120
3.06787e-120
-7.56923e-122
)
;

boundaryField
{
    sides
    {
        type            zeroGradient;
    }
    empty
    {
        type            empty;
    }
}


// ************************************************************************* //
