/*--------------------------------*- C++ -*----------------------------------*\
| =========                 |                                                 |
| \\      /  F ield         | OpenFOAM: The Open Source CFD Toolbox           |
|  \\    /   O peration     | Version:  2312                                  |
|   \\  /    A nd           | Website:  www.openfoam.com                      |
|    \\/     M anipulation  |                                                 |
\*---------------------------------------------------------------------------*/
FoamFile
{
    version     2.0;
    format      ascii;
    arch        "LSB;label=32;scalar=64";
    class       volScalarField;
    location    "4";
    object      T;
}
// * * * * * * * * * * * * * * * * * * * * * * * * * * * * * * * * * * * * * //

dimensions      [0 0 0 1 0 0 0];

internalField   nonuniform List<scalar> 
1000
(
0
0
0
0
0
0
0
0
0
0
0
0
0
0
0
0
0
0
0
0
0
0
0
0
0
0
0
0
0
0
0
0
0
0
0
0
0
0
0
0
0
0
0
0
0
0
0
0
0
0
0
0
0
0
0
0
0
0
0
0
0
0
0
0
0
0
0
0
0
0
0
0
0
0
0
0
0
0
0
0
0
0
0
0
0
0
0
0
0
0
0
0
0
0
0
0
0
0
0
0
0
0
0
0
0
0
0
0
0
0
0
0
0
0
0
0
0
0
0
0
0
0
0
0
0
0
0
0
0
0
0
0
0
0
0
0
0
0
0
0
0
0
0
0
0
0
0
0
0
0
0
0
0
0
0
0
0
0
0
0
0
0
0
0
0
0
0
0
0
0
0
0
0
0
0
0
0
0
0
0
0
0
0
0
0
0
0
0
0
0
0
0
0
0
0
0
0
0
0
0
0
0
0
0
0
0
0
0
0
0
0
0
0
0
0
0
0
0
0
0
0
0
0
0
0
0
0
0
0
0
0
0
0
0
0
0
0
0
0
0
0
0
0
0
0
0
0
0
0
0
0
0
0
0
0
0
0
0
0
0
0
0
0
0
0
0
0
0
0
0
0
0
0
0
0
0
0
0
0
0
0
0
0
0
0
0
0
0
0
0
0
0
0
0
0
0
0
0
0
0
0
0
0
0
0
0
0
0
0
0
0
0
0
0
0
0
0
0
0
0
0
0
0
0
0
0
0
0
0
0
0
0
0
0
0
0
0
0
0
0
0
0
0
0
0
0
0
0
0
0
0
0
0
0
0
0
0
0
0
0
0
0
0
0
0
0
0
0
0
0
0
0
0
0
0
0
0
0
0
0
0
0
0
0
0
0
0
0
0
0
0
0
0
0
0
0
0
0
0
0
0
0
0
0
0
0
0
0
0
0
0
0
0
0
0
0
0
0
0
0
0
0
0
0
0
0
0
0
0
0
0
0
0
0
0
0
0
0
0
0
0
0
0
0
0
0
0
0
0
0
6.0001e-115
1.5333e-112
1.95965e-110
1.67015e-108
1.06784e-106
5.46338e-105
2.32997e-103
8.51936e-102
2.72638e-100
7.75759e-99
1.98712e-97
4.62855e-96
9.88532e-95
1.94935e-93
3.5704e-92
6.10515e-91
9.78953e-90
1.47779e-88
2.10744e-87
2.84794e-86
3.65717e-85
4.47388e-84
5.22559e-83
5.83978e-82
6.25588e-81
6.43526e-80
6.36687e-79
6.0675e-78
5.57718e-77
4.95102e-76
4.24978e-75
3.53112e-74
2.84305e-73
2.22029e-72
1.68338e-71
1.24018e-70
8.88514e-70
6.19528e-69
4.20718e-68
2.78456e-67
1.79738e-66
1.13218e-65
6.96374e-65
4.18471e-64
2.45821e-63
1.4123e-62
7.93977e-62
4.36981e-61
2.35554e-60
1.24417e-59
6.44183e-59
3.27081e-58
1.62924e-57
7.96445e-57
3.82231e-56
1.80154e-55
8.34163e-55
3.79567e-54
1.69781e-53
7.4676e-53
3.23066e-52
1.37511e-51
5.76024e-51
2.37525e-50
9.64399e-50
3.85644e-49
1.51916e-48
5.89664e-48
2.25574e-47
8.50649e-47
3.16286e-46
1.15975e-45
4.19464e-45
1.49675e-44
5.27005e-44
1.83133e-43
6.28179e-43
2.12736e-42
7.11397e-42
2.34946e-41
7.66442e-41
2.47009e-40
7.86568e-40
2.47522e-39
7.69851e-39
2.36689e-38
7.19432e-38
2.16221e-37
6.42631e-37
1.88902e-36
5.49259e-36
1.57993e-35
4.49647e-35
1.26628e-34
3.52907e-34
9.73454e-34
2.65792e-33
7.18436e-33
1.92264e-32
5.09472e-32
1.33689e-31
3.47434e-31
8.94311e-31
2.28028e-30
5.75986e-30
1.44145e-29
3.57432e-29
8.78271e-29
2.13868e-28
5.16154e-28
1.23472e-27
2.92786e-27
6.88268e-27
1.60408e-26
3.70673e-26
8.49345e-26
1.92992e-25
4.349e-25
9.71999e-25
2.15477e-24
4.7383e-24
1.03363e-23
2.23695e-23
4.80314e-23
1.0233e-22
2.16328e-22
4.53825e-22
9.44834e-22
1.95227e-21
4.00379e-21
8.15028e-21
1.64692e-20
3.30365e-20
6.57906e-20
1.30079e-19
2.55357e-19
4.97747e-19
9.63421e-19
1.85179e-18
3.53475e-18
6.70101e-18
1.26171e-17
2.35959e-17
4.38324e-17
8.08828e-17
1.48266e-16
2.70004e-16
4.885e-16
8.78103e-16
1.56831e-15
2.7832e-15
4.90798e-15
8.60055e-15
1.49773e-14
2.59206e-14
4.45838e-14
7.62166e-14
1.29503e-13
2.1872e-13
3.67191e-13
6.12783e-13
1.0166e-12
1.67665e-12
2.74915e-12
4.48161e-12
7.26385e-12
1.17062e-11
1.87582e-11
2.98892e-11
4.73588e-11
7.46216e-11
1.16929e-10
1.82217e-10
2.82409e-10
4.35321e-10
6.67413e-10
1.01777e-09
1.54379e-09
2.3293e-09
3.49604e-09
5.2198e-09
7.75307e-09
1.14564e-08
1.6842e-08
2.46333e-08
3.58466e-08
5.1902e-08
7.4773e-08
1.07187e-07
1.52895e-07
2.17023e-07
3.06545e-07
4.30898e-07
6.02778e-07
8.39181e-07
1.16274e-06
1.60343e-06
2.20075e-06
3.00648e-06
4.08812e-06
5.53323e-06
7.45483e-06
9.99796e-06
1.33479e-05
1.77399e-05
2.34716e-05
3.0917e-05
4.0544e-05
5.2935e-05
6.8811e-05
8.90601e-05
0.000114771
0.000147269
0.000188165
0.0002394
0.000303303
0.000382658
0.000480769
0.000601543
0.000749569
0.000930217
0.00114973
0.00141533
0.00173532
0.00211923
0.00257786
0.00312348
0.00376988
0.0045325
0.0054285
0.00647689
0.00769858
0.00911639
0.0107551
0.0126416
0.0148045
0.0172745
0.0200838
0.0232664
0.0268577
0.0308943
0.0354136
0.0404535
0.0460523
0.0522479
0.0590775
0.0665772
0.0747814
0.0837221
0.0934285
0.103927
0.115238
0.127382
0.140369
0.154207
0.168897
0.184435
0.20081
0.218004
0.235991
0.254742
0.274217
0.294374
0.315159
0.336519
0.358389
0.380705
0.403394
0.426383
0.449593
0.472947
0.496364
0.519762
0.543063
0.566186
0.589055
0.611597
0.633741
0.655421
0.676575
0.697147
0.717087
0.736351
0.754898
0.772699
0.789726
0.80596
0.821388
0.836002
0.8498
0.862787
0.87497
0.886363
0.896984
0.906852
0.915993
0.924434
0.932203
0.939331
0.945852
0.951797
0.957202
0.962099
0.966523
0.970506
0.974081
0.97728
0.980132
0.982666
0.984909
0.986887
0.988624
0.990141
0.991458
0.992595
0.993565
0.994385
0.995066
0.995619
0.99605
0.996368
0.996575
0.996673
0.996663
0.996543
0.996307
0.99595
0.995462
0.994832
0.994048
0.993092
0.991948
0.990594
0.989009
0.987166
0.985039
0.982599
0.979814
0.976651
0.973076
0.969053
0.964544
0.959513
0.953921
0.947731
0.940906
0.933409
0.925208
0.91627
0.906565
0.896068
0.884758
0.872615
0.859629
0.845792
0.831102
0.815564
0.799189
0.781996
0.764008
0.745258
0.725782
0.705626
0.68484
0.663481
0.641611
0.619295
0.596606
0.573617
0.550407
0.527053
0.503636
0.480238
0.456937
0.433814
0.410945
0.388403
0.366259
0.344579
0.323425
0.302853
0.282913
0.263649
0.245102
0.227301
0.210274
0.19404
0.178612
0.163998
0.1502
0.137213
0.12503
0.113636
0.103016
0.093147
0.0840057
0.0755648
0.0677952
0.0606658
0.0541442
0.0481971
0.0427907
0.0378908
0.0334638
0.0294761
0.0258952
0.0226893
0.0198278
0.0172814
0.0150223
0.0130239
0.0112616
0.00971202
0.00835353
0.00716609
0.00613122
0.00523196
0.00445282
0.00377973
0.00319994
0.00270197
0.00227549
0.0019113
0.00160119
0.00133789
0.00111496
0.000926749
0.000768302
0.000635286
0.000523933
0.000430976
0.000353593
0.000289354
0.000236174
0.000192271
0.000156126
0.00012645
0.000102152
8.23119e-05
6.61556e-05
5.3035e-05
4.24083e-05
3.38248e-05
2.69102e-05
2.13549e-05
1.69037e-05
1.33465e-05
1.05115e-05
8.25785e-06
6.47116e-06
5.05837e-06
3.94417e-06
3.06774e-06
2.38014e-06
1.84209e-06
1.42214e-06
1.09523e-06
8.41388e-07
6.44794e-07
4.92925e-07
3.75906e-07
2.85968e-07
2.17019e-07
1.64295e-07
1.24079e-07
9.34811e-08
7.02588e-08
5.26785e-08
3.94024e-08
2.94017e-08
2.1887e-08
1.62541e-08
1.20423e-08
8.9007e-09
6.56314e-09
4.82808e-09
3.54336e-09
2.59439e-09
1.89512e-09
1.3811e-09
1.00415e-09
7.28391e-10
5.27134e-10
3.80604e-10
2.74171e-10
1.97047e-10
1.41293e-10
1.01082e-10
7.215e-11
5.13816e-11
3.65082e-11
2.58814e-11
1.83063e-11
1.29191e-11
9.09676e-12
6.39093e-12
4.47989e-12
3.13329e-12
2.18657e-12
1.52251e-12
1.05777e-12
7.33265e-13
5.07191e-13
3.50045e-13
2.41058e-13
1.65641e-13
1.1357e-13
7.76979e-14
5.30408e-14
3.613e-14
2.45575e-14
1.66557e-14
1.12721e-14
7.61219e-15
5.12961e-15
3.44929e-15
2.31444e-15
1.54967e-15
1.0354e-15
6.90328e-16
4.59288e-16
3.04929e-16
2.02021e-16
1.33562e-16
8.81173e-17
5.80137e-17
3.81149e-17
2.49893e-17
1.63499e-17
1.06752e-17
6.95566e-18
4.5228e-18
2.93483e-18
1.90051e-18
1.22819e-18
7.92096e-19
5.09806e-19
3.27454e-19
2.09901e-19
1.34277e-19
8.57261e-20
5.46198e-20
3.47309e-20
2.204e-20
1.39585e-20
8.82273e-21
5.56547e-21
3.5038e-21
2.20149e-21
1.3805e-21
)
;

boundaryField
{
    sides
    {
        type            zeroGradient;
    }
    empty
    {
        type            empty;
    }
}


// ************************************************************************* //
