/*--------------------------------*- C++ -*----------------------------------*\
| =========                 |                                                 |
| \\      /  F ield         | OpenFOAM: The Open Source CFD Toolbox           |
|  \\    /   O peration     | Version:  2312                                  |
|   \\  /    A nd           | Website:  www.openfoam.com                      |
|    \\/     M anipulation  |                                                 |
\*---------------------------------------------------------------------------*/
FoamFile
{
    version     2.0;
    format      ascii;
    arch        "LSB;label=32;scalar=64";
    class       volScalarField;
    location    "3.7";
    object      T;
}
// * * * * * * * * * * * * * * * * * * * * * * * * * * * * * * * * * * * * * //

dimensions      [0 0 0 1 0 0 0];

internalField   nonuniform List<scalar> 
1000
(
0
0
0
0
0
0
0
0
0
0
0
0
0
0
0
0
0
0
0
0
0
0
0
0
0
0
0
0
0
0
0
0
0
0
0
0
0
0
0
0
0
0
0
0
0
0
0
0
0
0
0
0
0
0
0
0
0
0
0
0
0
0
0
0
0
0
0
0
0
0
0
0
0
0
0
0
0
0
0
0
0
0
0
0
0
0
0
0
0
0
0
0
0
0
0
0
0
0
0
0
0
0
0
0
0
0
0
0
0
0
0
0
0
0
0
0
0
0
0
0
0
0
0
0
0
0
0
0
0
0
0
0
0
0
0
0
0
0
0
0
0
0
0
0
0
0
0
0
0
0
0
0
0
0
0
0
0
0
0
0
0
0
0
0
0
0
0
0
0
0
0
0
0
0
0
0
0
0
0
0
0
0
0
0
0
0
0
0
0
0
0
0
0
0
0
0
0
0
0
0
0
0
0
0
0
0
0
0
0
0
0
0
0
0
0
0
0
0
0
0
0
0
0
0
0
0
0
0
0
0
0
0
0
0
0
0
0
0
0
0
0
0
0
0
0
0
0
0
0
0
0
0
0
0
0
0
0
0
0
0
0
0
0
0
0
0
0
0
0
0
0
0
0
0
0
0
0
0
0
0
0
0
0
0
0
0
0
0
0
0
0
0
0
0
0
0
0
0
0
0
0
0
0
0
0
0
0
0
0
0
0
0
0
0
0
0
0
0
0
0
0
0
0
0
0
0
0
0
0
0
0
0
0
0
0
0
0
0
0
0
0
0
0
0
0
0
0
0
0
0
0
0
0
0
0
0
0
0
0
0
0
0
0
0
0
0
0
0
0
0
0
0
0
0
0
0
0
0
0
0
0
0
0
0
0
0
0
0
0
0
0
0
0
0
0
0
0
0
0
0
0
0
0
0
1.09883e-136
-7.37639e-121
4.43232e-113
-2.55229e-109
-3.60494e-107
-2.13345e-105
-4.87737e-104
1.98226e-102
2.46058e-100
1.3433e-98
5.24187e-97
1.63958e-95
4.32811e-94
9.93545e-93
2.02328e-91
3.70819e-90
6.1842e-89
9.46693e-88
1.33976e-86
1.76322e-85
2.16881e-84
2.50399e-83
2.72366e-82
2.80018e-81
2.72877e-80
2.52686e-79
2.22839e-78
1.8752e-77
1.50836e-76
1.16153e-75
8.57432e-75
6.07465e-74
4.13446e-73
2.70545e-72
1.70311e-71
1.03181e-70
6.01669e-70
3.37628e-69
1.82211e-68
9.44602e-68
4.69445e-67
2.22915e-66
1.00586e-65
4.27289e-65
1.67961e-64
5.89217e-64
1.67353e-63
2.33729e-63
-1.50051e-62
-1.84731e-61
-1.33559e-60
-8.03613e-60
-4.36745e-59
-2.2154e-58
-1.06641e-57
-4.9184e-57
-2.18689e-56
-9.41358e-56
-3.93476e-55
-1.60065e-54
-6.34826e-54
-2.45808e-53
-9.30286e-53
-3.44456e-52
-1.24882e-51
-4.43641e-51
-1.54526e-50
-5.28039e-50
-1.77117e-49
-5.83453e-49
-1.8885e-48
-6.00904e-48
-1.8805e-47
-5.79059e-47
-1.75532e-46
-5.24049e-46
-1.54157e-45
-4.47016e-45
-1.27829e-44
-3.60623e-44
-1.00404e-43
-2.75969e-43
-7.49022e-43
-2.00792e-42
-5.31719e-42
-1.39103e-41
-3.5952e-41
-9.17962e-41
-2.31528e-40
-5.76775e-40
-1.41893e-39
-3.44661e-39
-8.26461e-39
-1.95605e-38
-4.56888e-38
-1.05311e-37
-2.39534e-37
-5.37676e-37
-1.19127e-36
-2.60599e-36
-5.63112e-36
-1.20264e-35
-2.54051e-35
-5.31296e-35
-1.10108e-34
-2.26378e-34
-4.62205e-34
-9.38052e-34
-1.8937e-33
-3.80393e-33
-7.60224e-33
-1.51065e-32
-2.98124e-32
-5.83341e-32
-1.12935e-31
-2.15791e-31
-4.05791e-31
-7.48577e-31
-1.34966e-30
-2.36774e-30
-4.01905e-30
-6.54998e-30
-1.01309e-29
-1.4582e-29
-1.878e-29
-1.95184e-29
-9.52748e-30
2.56094e-29
1.11615e-28
2.89838e-28
6.18784e-28
1.16591e-27
1.97575e-27
2.98991e-27
3.88039e-27
3.74489e-27
6.11637e-28
-9.26223e-27
-3.21931e-26
-7.75793e-26
-1.57141e-25
-2.80879e-25
-4.46072e-25
-6.13224e-25
-6.59891e-25
-3.00437e-25
1.0411e-24
4.41327e-24
1.15664e-23
2.51833e-23
4.89943e-23
8.75428e-23
1.45191e-22
2.23734e-22
3.17754e-22
4.06708e-22
4.42913e-22
3.35387e-22
-6.85215e-23
-9.97947e-22
-2.75764e-21
-5.68974e-21
-1.0064e-20
-1.58484e-20
-2.23006e-20
-2.73202e-20
-2.65269e-20
-1.20941e-20
2.84931e-20
1.13355e-19
2.66057e-19
5.13152e-19
8.77651e-19
1.36614e-18
1.94705e-18
2.51804e-18
2.86223e-18
2.59635e-18
1.11793e-18
-2.42956e-18
-9.14185e-18
-2.02373e-17
-3.67638e-17
-5.90359e-17
-8.57279e-17
-1.12642e-16
-1.3144e-16
-1.2876e-16
-8.2077e-17
4.70283e-17
3.31131e-16
8.74387e-16
1.73737e-15
2.68102e-15
3.07859e-15
-1.26248e-16
-9.42035e-15
-1.77247e-14
-1.17824e-14
2.04038e-14
5.60429e-14
4.40148e-14
-4.6713e-14
-1.54663e-13
-1.31491e-13
1.10701e-13
4.12627e-13
3.71681e-13
-2.34725e-13
-1.08065e-12
-1.06785e-12
4.36311e-13
2.7436e-12
3.03816e-12
-4.09375e-13
-6.56994e-12
-8.75482e-12
-1.30627e-12
1.46342e-11
2.4323e-11
1.07884e-11
-2.86922e-11
-6.40773e-11
-4.77333e-11
4.19116e-11
1.58132e-10
1.64909e-10
-7.14412e-12
-3.24914e-10
-5.04447e-10
-2.47386e-10
5.13962e-10
1.30412e-09
1.21921e-09
-2.6295e-10
-2.71672e-09
-4.05962e-09
-2.17954e-09
3.58961e-09
1.03331e-08
1.1024e-08
1.81947e-09
-1.72006e-08
-3.35149e-08
-2.91881e-08
5.73152e-09
6.39613e-08
1.04355e-07
7.93506e-08
-3.5695e-08
-2.11288e-07
-3.24243e-07
-2.4052e-07
1.06313e-07
6.39754e-07
1.01203e-06
8.36724e-07
-1.18764e-07
-1.7269e-06
-3.15007e-06
-3.10365e-06
-8.85682e-07
3.69972e-06
9.02311e-06
1.13869e-05
7.87269e-06
-3.28115e-06
-2.06596e-05
-3.71702e-05
-3.96262e-05
-2.15192e-05
2.2508e-05
8.5275e-05
0.000142343
0.000151425
9.27279e-05
-5.59386e-05
-0.000282562
-0.000523548
-0.000650058
-0.000561003
-0.000175748
0.000556257
0.00155569
0.00257732
0.00316192
0.00292043
0.00153969
-0.00129611
-0.00562668
-0.0110303
-0.0165354
-0.0205121
-0.0207063
-0.0164278
-0.00543467
0.0141021
0.0435789
0.0837374
0.134538
0.195129
0.263905
0.338661
0.41681
0.495624
0.572484
0.645089
0.71161
0.770779
0.821909
0.864851
0.899909
0.927731
0.94919
0.965266
0.976956
0.985197
0.990821
0.994529
0.996884
0.998318
0.999151
0.999609
0.999843
0.999951
0.999993
1
1
1
1
1
1
1
1
1
1
1
1
1
1
1
1
1
1
1
1
1
1
1
1
1
1
1
1
0.999999
0.999999
0.999999
1
1
1
1
1
0.999996
0.999991
0.999989
0.999992
1
1.00002
1.00004
1.00004
1.00002
0.999977
0.999915
0.999858
0.999849
0.999908
1.00006
1.00028
1.00052
1.00065
1.00056
1.00018
0.999442
0.998443
0.997422
0.996839
0.997083
0.998466
1.0013
1.00563
1.01104
1.01654
1.02051
1.0207
1.01641
1.0054
0.985849
0.956358
0.916187
0.865375
0.804775
0.735994
0.661236
0.583088
0.504279
0.427426
0.354831
0.28832
0.229162
0.178042
0.135111
0.100062
0.0722466
0.0507942
0.0347228
0.0230366
0.0147979
0.00917539
0.00546874
0.00311506
0.00168134
0.000848439
0.000391043
0.000157022
4.85066e-05
6.5995e-06
8.95289e-17
8.80354e-17
8.71466e-17
8.51998e-17
8.23381e-17
7.87487e-17
7.46078e-17
7.00745e-17
6.52898e-17
6.03763e-17
5.54389e-17
5.05652e-17
4.58267e-17
4.12795e-17
3.69665e-17
3.2918e-17
2.91537e-17
2.56841e-17
2.2512e-17
1.96338e-17
1.7041e-17
1.47209e-17
1.26583e-17
1.08358e-17
9.23492e-18
7.83673e-18
6.62221e-18
5.57281e-18
4.67071e-18
3.89909e-18
3.24225e-18
2.68574e-18
2.2164e-18
1.82232e-18
1.49287e-18
1.21863e-18
9.9128e-19
8.03572e-19
6.49204e-19
5.22748e-19
4.19547e-19
3.35637e-19
2.67661e-19
2.12788e-19
1.68646e-19
1.33259e-19
1.04985e-19
8.24687e-20
6.4595e-20
5.04517e-20
3.92951e-20
3.05212e-20
2.3642e-20
1.82641e-20
1.40722e-20
1.0814e-20
8.28867e-21
6.3368e-21
4.8323e-21
3.67576e-21
2.78907e-21
2.11106e-21
1.59397e-21
1.20061e-21
9.02152e-22
6.76264e-22
5.05729e-22
3.77304e-22
2.80829e-22
2.08532e-22
1.54487e-22
1.14182e-22
8.4197e-23
6.19429e-23
4.54658e-23
3.3295e-23
2.43263e-23
1.77329e-23
1.2897e-23
9.35847e-24
6.77534e-24
4.89405e-24
3.52709e-24
2.53617e-24
1.8195e-24
1.30239e-24
9.30132e-25
6.62772e-25
4.71194e-25
3.34235e-25
2.3655e-25
1.67036e-25
1.17684e-25
8.27263e-26
5.80216e-26
4.06029e-26
2.83495e-26
1.97495e-26
1.37275e-26
9.52027e-27
6.58767e-27
4.54821e-27
3.13311e-27
2.15347e-27
1.47683e-27
1.01054e-27
6.89928e-28
4.6999e-28
3.19453e-28
2.1665e-28
1.46605e-28
9.8986e-29
6.66865e-29
4.48273e-29
3.0067e-29
2.01224e-29
1.34373e-29
8.95353e-30
5.95282e-30
3.94913e-30
2.61415e-30
1.72668e-30
1.13802e-30
7.48417e-31
4.91129e-31
3.21594e-31
2.10127e-31
1.37e-31
8.91297e-32
5.7862e-32
3.74829e-32
2.42295e-32
1.5629e-32
1.00598e-32
6.46141e-33
4.14137e-33
2.64875e-33
1.69053e-33
1.07668e-33
6.84291e-34
4.33994e-34
2.74673e-34
1.73477e-34
1.09336e-34
6.87676e-35
4.3162e-35
2.70347e-35
1.68983e-35
1.05408e-35
6.56156e-36
4.07617e-36
2.52702e-36
1.56343e-36
9.653e-37
5.94791e-37
3.65751e-37
2.24455e-37
1.37466e-37
8.40208e-38
5.12514e-38
3.11999e-38
1.89554e-38
1.14933e-38
6.95494e-39
4.20028e-39
2.53164e-39
1.52289e-39
9.14271e-40
5.47806e-40
3.27587e-40
)
;

boundaryField
{
    sides
    {
        type            zeroGradient;
    }
    empty
    {
        type            empty;
    }
}


// ************************************************************************* //
