/*--------------------------------*- C++ -*----------------------------------*\
| =========                 |                                                 |
| \\      /  F ield         | OpenFOAM: The Open Source CFD Toolbox           |
|  \\    /   O peration     | Version:  2312                                  |
|   \\  /    A nd           | Website:  www.openfoam.com                      |
|    \\/     M anipulation  |                                                 |
\*---------------------------------------------------------------------------*/
FoamFile
{
    version     2.0;
    format      ascii;
    arch        "LSB;label=32;scalar=64";
    class       volScalarField;
    location    "4.2";
    object      T;
}
// * * * * * * * * * * * * * * * * * * * * * * * * * * * * * * * * * * * * * //

dimensions      [0 0 0 1 0 0 0];

internalField   nonuniform List<scalar> 
1000
(
0
0
0
0
0
0
0
0
0
0
0
0
0
0
0
0
0
0
0
0
0
0
0
0
0
0
0
0
0
0
0
0
0
0
0
0
0
0
0
0
0
0
0
0
0
0
0
0
0
0
0
0
0
0
0
0
0
0
0
0
0
0
0
0
0
0
0
0
0
0
0
0
0
0
0
0
0
0
0
0
0
0
0
0
0
0
0
0
0
0
0
0
0
0
0
0
0
0
0
0
0
0
0
0
0
0
0
0
0
0
0
0
0
0
0
0
0
0
0
0
0
0
0
0
0
0
0
0
0
0
0
0
0
0
0
0
0
0
0
0
0
0
0
0
0
0
0
0
0
0
0
0
0
0
0
0
0
0
0
0
0
0
0
0
0
0
0
0
0
0
0
0
0
0
0
0
0
0
0
0
0
0
0
0
0
0
0
0
0
0
0
0
0
0
0
0
0
0
0
0
0
0
0
0
0
0
0
0
0
0
0
0
0
0
0
0
0
0
0
0
0
0
0
0
0
0
0
0
0
0
0
0
0
0
0
0
0
0
0
0
0
0
0
0
0
0
0
0
0
0
0
0
0
0
0
0
0
0
0
0
0
0
0
0
0
0
0
0
0
0
0
0
0
0
0
0
0
0
0
0
0
0
0
0
0
0
0
0
0
0
0
0
0
0
0
0
0
0
0
0
0
0
0
0
0
0
0
0
0
0
0
0
0
0
0
0
0
0
0
0
0
0
0
0
0
0
0
0
0
0
0
0
0
0
0
0
0
0
0
0
0
0
0
0
0
0
0
0
0
0
0
0
0
0
0
0
0
0
0
0
0
0
0
0
0
0
0
0
0
0
0
0
0
0
0
0
0
0
0
0
0
0
0
0
0
0
0
0
0
0
0
0
0
0
0
0
0
0
0
0
0
0
0
0
0
0
0
0
0
0
0
0
0
0
0
0
0
0
0
0
0
0
0
0
0
0
0
0
0
0
0
0
0
0
0
0
0
0
0
0
0
0
0
0
0
0
0
0
0
0
1.16699e-120
3.13071e-118
4.20047e-116
3.75812e-114
2.52239e-112
1.35473e-110
6.06489e-109
2.32784e-107
7.81989e-106
2.33563e-104
6.28e-103
1.53543e-101
3.44208e-100
7.12458e-99
1.36969e-97
2.45827e-96
4.1373e-95
6.55518e-94
9.81155e-93
1.39161e-91
1.87557e-90
2.40805e-89
2.95192e-88
3.46215e-87
3.89237e-86
4.20207e-85
4.36302e-84
4.36345e-83
4.20908e-82
3.92116e-81
3.53205e-80
3.0797e-79
2.60202e-78
2.13235e-77
1.69649e-76
1.31148e-75
9.85939e-75
7.21352e-74
5.1401e-73
3.56964e-72
2.41764e-71
1.59788e-70
1.0312e-69
6.50172e-69
4.0072e-68
2.41548e-67
1.42472e-66
8.22671e-66
4.65252e-65
2.57814e-64
1.40042e-63
7.45972e-63
3.89818e-62
1.99912e-61
1.00649e-60
4.97644e-60
2.41721e-59
1.1538e-58
5.41386e-58
2.49786e-57
1.13355e-56
5.06109e-56
2.2238e-55
9.61857e-55
4.09633e-54
1.71814e-53
7.09903e-53
2.89015e-52
1.15963e-51
4.58656e-51
1.78862e-50
6.87858e-50
2.60925e-49
9.7646e-49
3.60574e-48
1.31406e-47
4.72712e-47
1.67885e-46
5.88753e-46
2.03908e-45
6.97561e-45
2.35748e-44
7.8722e-44
2.59771e-43
8.47222e-43
2.73134e-42
8.70533e-42
2.74338e-41
8.54942e-41
2.63506e-40
8.03351e-40
2.42288e-39
7.22979e-39
2.1347e-38
6.23755e-38
1.80389e-37
5.16379e-37
1.46333e-36
4.10555e-36
1.14053e-35
3.13753e-35
8.54796e-35
2.30659e-34
6.16533e-34
1.63252e-33
4.28271e-33
1.11321e-32
2.86727e-32
7.31871e-32
1.85145e-31
4.64236e-31
1.15385e-30
2.843e-30
6.94482e-30
1.68202e-29
4.03948e-29
9.61996e-29
2.272e-28
5.32184e-28
1.23642e-27
2.84939e-27
6.51402e-27
1.47736e-26
3.32427e-26
7.42172e-26
1.64415e-25
3.61437e-25
7.88512e-25
1.70724e-24
3.66874e-24
7.82534e-24
1.65683e-23
3.48233e-23
7.26607e-23
1.5052e-22
3.09584e-22
6.32231e-22
1.28206e-21
2.58169e-21
5.16274e-21
1.02533e-20
2.02243e-20
3.96219e-20
7.71024e-20
1.49037e-19
2.86178e-19
5.459e-19
1.03454e-18
1.94785e-18
3.64386e-18
6.77304e-18
1.25096e-17
2.29592e-17
4.1874e-17
7.58973e-17
1.36716e-16
2.44762e-16
4.35528e-16
7.7029e-16
1.35418e-15
2.36647e-15
4.11097e-15
7.09942e-15
1.21886e-14
2.08044e-14
3.53056e-14
5.95708e-14
9.99407e-14
1.66719e-13
2.76553e-13
4.56182e-13
7.48306e-13
1.22072e-12
1.98046e-12
3.19552e-12
5.12814e-12
8.18529e-12
1.29951e-11
2.05215e-11
3.22358e-11
5.0371e-11
7.8298e-11
1.21077e-10
1.86264e-10
2.85077e-10
4.34089e-10
6.57644e-10
9.91313e-10
1.4868e-09
2.21885e-09
3.29496e-09
4.86893e-09
7.1596e-09
1.04768e-08
1.52569e-08
2.21113e-08
3.18921e-08
4.57812e-08
6.54089e-08
9.30133e-08
1.31651e-07
1.85474e-07
2.60097e-07
3.63072e-07
5.04508e-07
6.97863e-07
9.60975e-07
1.31736e-06
1.79787e-06
2.44279e-06
3.30444e-06
4.45047e-06
5.96786e-06
7.96801e-06
1.05927e-05
1.40219e-05
1.84822e-05
2.42584e-05
3.17061e-05
4.12671e-05
5.34883e-05
6.90425e-05
8.87541e-05
0.000113628
0.000144882
0.000183989
0.000232715
0.000293173
0.000367875
0.000459796
0.000572436
0.000709901
0.000876975
0.00107921
0.00132302
0.00161576
0.00196584
0.00238282
0.00287751
0.00346207
0.0041501
0.00495673
0.00589873
0.00699452
0.00826427
0.00972993
0.0114152
0.0133456
0.0155484
0.0180525
0.0208882
0.0240876
0.0276837
0.0317105
0.036203
0.0411965
0.0467264
0.0528279
0.0595355
0.0668825
0.0749007
0.0836199
0.0930674
0.103267
0.11424
0.126003
0.138568
0.151942
0.166127
0.181121
0.196914
0.213492
0.230832
0.248908
0.267686
0.287127
0.307186
0.327812
0.348951
0.370541
0.392519
0.414817
0.437364
0.460088
0.482915
0.505769
0.528576
0.551262
0.573754
0.595981
0.617875
0.639373
0.660414
0.680942
0.700905
0.720258
0.73896
0.756977
0.774278
0.790841
0.806647
0.821685
0.835948
0.849433
0.862144
0.874089
0.88528
0.895733
0.905466
0.914502
0.922866
0.930583
0.937684
0.944197
0.950153
0.955583
0.960519
0.964993
0.969034
0.972673
0.97594
0.978863
0.981469
0.983783
0.985829
0.987631
0.989208
0.99058
0.991763
0.992772
0.993622
0.994322
0.994882
0.99531
0.995611
0.995787
0.995839
0.995767
0.995567
0.995234
0.994759
0.994133
0.993343
0.992376
0.991215
0.98984
0.98823
0.986363
0.984212
0.981752
0.978952
0.975782
0.972211
0.968204
0.963728
0.958748
0.953229
0.947136
0.940436
0.933095
0.925081
0.916366
0.906921
0.896724
0.885753
0.873992
0.861428
0.848055
0.83387
0.818877
0.803084
0.786507
0.769167
0.751092
0.732314
0.712873
0.692814
0.672187
0.651049
0.629459
0.607481
0.585183
0.562636
0.539912
0.517085
0.494231
0.471424
0.448738
0.426246
0.404019
0.382125
0.360627
0.339586
0.319058
0.299095
0.279742
0.26104
0.243023
0.225722
0.209159
0.193352
0.178315
0.164052
0.150567
0.137855
0.12591
0.114719
0.104266
0.094532
0.0854953
0.077131
0.0694121
0.0623101
0.0557952
0.0498365
0.0444027
0.0394621
0.034983
0.0309344
0.0272854
0.0240062
0.0210678
0.0184424
0.0161035
0.0140256
0.012185
0.0105593
0.00912729
0.00786959
0.00676807
0.00580604
0.0049682
0.00424054
0.00361035
0.00306607
0.0025973
0.00219467
0.00184981
0.00155522
0.00130427
0.00109108
0.00091046
0.000757842
0.000629236
0.000521154
0.000430564
0.000354839
0.000291707
0.000239215
0.000195684
0.00015968
0.00012998
0.000105544
8.54915e-05
6.90795e-05
5.56817e-05
4.47729e-05
3.59137e-05
2.87374e-05
2.29393e-05
1.82668e-05
1.45108e-05
1.14994e-05
9.09096e-06
7.16971e-06
5.64094e-06
4.42752e-06
3.46684e-06
2.70813e-06
2.11044e-06
1.64076e-06
1.27259e-06
9.84705e-07
7.60149e-07
5.85422e-07
4.49799e-07
3.44787e-07
2.63675e-07
2.01174e-07
1.53132e-07
1.16292e-07
8.81102e-08
6.66039e-08
5.02309e-08
3.77957e-08
2.83738e-08
2.12518e-08
1.58812e-08
1.18407e-08
8.80817e-09
6.53743e-09
4.84111e-09
3.57685e-09
2.6368e-09
1.93944e-09
1.42332e-09
1.04221e-09
7.61444e-10
5.55076e-10
4.0374e-10
2.93013e-10
2.12183e-10
1.53312e-10
1.10531e-10
7.95131e-11
5.70743e-11
4.08783e-11
2.92144e-11
2.08331e-11
1.48242e-11
1.05255e-11
7.45725e-12
5.27202e-12
3.71912e-12
2.61801e-12
1.83896e-12
1.28898e-12
9.01555e-13
6.29239e-13
4.38245e-13
3.04579e-13
2.11234e-13
1.46189e-13
1.00961e-13
6.9579e-14
4.78515e-14
3.28402e-14
2.24912e-14
1.53715e-14
1.04838e-14
7.13553e-15
4.84658e-15
3.28512e-15
2.22216e-15
1.50006e-15
1.01054e-15
6.79382e-16
4.55816e-16
3.052e-16
2.03939e-16
1.35999e-16
9.05104e-17
6.01155e-17
3.98477e-17
2.63603e-17
1.74032e-17
1.14668e-17
7.54037e-18
4.94859e-18
3.24123e-18
)
;

boundaryField
{
    sides
    {
        type            zeroGradient;
    }
    empty
    {
        type            empty;
    }
}


// ************************************************************************* //
