/*--------------------------------*- C++ -*----------------------------------*\
| =========                 |                                                 |
| \\      /  F ield         | OpenFOAM: The Open Source CFD Toolbox           |
|  \\    /   O peration     | Version:  2312                                  |
|   \\  /    A nd           | Website:  www.openfoam.com                      |
|    \\/     M anipulation  |                                                 |
\*---------------------------------------------------------------------------*/
FoamFile
{
    version     2.0;
    format      ascii;
    arch        "LSB;label=32;scalar=64";
    class       volScalarField;
    location    "0.1";
    object      T;
}
// * * * * * * * * * * * * * * * * * * * * * * * * * * * * * * * * * * * * * //

dimensions      [0 0 0 1 0 0 0];

internalField   nonuniform List<scalar> 
1000
(
0
0
0
0
0
0
0
0
0
0
0
0
0
0
0
0
0
0
0
0
0
0
0
0
0
0
0
0
0
0
0
0
0
0
0
0
0
0
0
0
0
0
0
0
0
0
0
0
0
0
0
0
0
0
0
0
0
0
0
0
0
0
0
0
0
0
0
0
0
0
0
0
0
0
0
0
0
0
0
0
0
0
0
0
0
0
0
0
0
0
0
0
0
0
0
0
0
0
0
0
0
0
0
0
0
0
0
0
0
0
0
2.47033e-323
3.7549e-322
4.99006e-321
6.59133e-320
8.70079e-319
1.14781e-317
1.51315e-316
1.99341e-315
2.6243e-314
3.45247e-313
4.53884e-312
5.96288e-311
7.8282e-310
1.02698e-308
1.34633e-307
1.76373e-306
2.30887e-305
3.02033e-304
3.94816e-303
5.15724e-302
6.73165e-301
8.78021e-300
1.14437e-298
1.4904e-297
1.93961e-296
2.52231e-295
3.27758e-294
4.25575e-293
5.52161e-292
7.15847e-291
9.27337e-290
1.20037e-288
1.55258e-287
2.00655e-286
2.59119e-285
3.34352e-284
4.3108e-283
5.55345e-282
7.14849e-281
9.19413e-280
1.18155e-278
1.51716e-277
1.94649e-276
2.49522e-275
3.19595e-274
4.09e-273
5.22971e-272
6.68129e-271
8.52842e-270
1.08768e-268
1.38597e-267
1.76452e-266
2.24448e-265
2.85246e-264
3.6219e-263
4.59475e-262
5.82366e-261
7.37453e-260
9.32986e-259
1.17928e-257
1.48921e-256
1.87884e-255
2.36819e-254
2.98218e-253
3.75178e-252
4.71549e-251
5.92105e-250
7.42763e-249
9.30847e-248
1.16542e-246
1.45766e-245
1.82137e-244
2.27357e-243
2.83518e-242
3.53194e-241
4.39545e-240
5.46448e-239
6.7865e-238
8.4196e-237
1.04348e-235
1.29187e-234
1.59769e-233
1.9738e-232
2.43583e-231
3.00278e-230
3.69765e-229
4.54834e-228
5.58857e-227
6.85908e-226
8.40904e-225
1.02976e-223
1.25961e-222
1.539e-221
1.87821e-220
2.28953e-219
2.78767e-218
3.39022e-217
4.11814e-216
4.9964e-215
6.0547e-214
7.32832e-213
8.85908e-212
1.06965e-210
1.28991e-209
1.55359e-208
1.86883e-207
2.24522e-206
2.69398e-205
3.22832e-204
3.86366e-203
4.61804e-202
5.51251e-201
6.57157e-200
7.82372e-199
9.30202e-198
1.10448e-196
1.30963e-195
1.55076e-194
1.83376e-193
2.16541e-192
2.55347e-191
3.00682e-190
3.53565e-189
4.15155e-188
4.8677e-187
5.69912e-186
6.66278e-185
7.77789e-184
9.06615e-183
1.05519e-181
1.22627e-180
1.42291e-179
1.64855e-178
1.90703e-177
2.20258e-176
2.53995e-175
2.92434e-174
3.36154e-173
3.85787e-172
4.42029e-171
5.05642e-170
5.77454e-169
6.58367e-168
7.49357e-167
8.51479e-166
9.65866e-165
1.09373e-163
1.23638e-162
1.39518e-161
1.57159e-160
1.76716e-159
1.98349e-158
2.22227e-157
2.48524e-156
2.77419e-155
3.09098e-154
3.43748e-153
3.81557e-152
4.22715e-151
4.67409e-150
5.15823e-149
5.68133e-148
6.24507e-147
6.85102e-146
7.50058e-145
8.19498e-144
8.93526e-143
9.72218e-142
1.05562e-140
1.14376e-139
1.2366e-138
1.3341e-137
1.43616e-136
1.54262e-135
1.65329e-134
1.76794e-133
1.88625e-132
2.00788e-131
2.13242e-130
2.25941e-129
2.38832e-128
2.51858e-127
2.64956e-126
2.78059e-125
2.91095e-124
3.03986e-123
3.16654e-122
3.29016e-121
3.40987e-120
3.5248e-119
3.6341e-118
3.73691e-117
3.83239e-116
3.91971e-115
3.9981e-114
4.06684e-113
4.12524e-112
4.17271e-111
4.20871e-110
4.23281e-109
4.24467e-108
4.24403e-107
4.23078e-106
4.20487e-105
4.1664e-104
4.11557e-103
4.0527e-102
3.97821e-101
3.89264e-100
3.79663e-99
3.69089e-98
3.57625e-97
3.45358e-96
3.32384e-95
3.18801e-94
3.04713e-93
2.90225e-92
2.75443e-91
2.60474e-90
2.4542e-89
2.30383e-88
2.15459e-87
2.00739e-86
1.86307e-85
1.72241e-84
1.5861e-83
1.45475e-82
1.32888e-81
1.20894e-80
1.09525e-79
9.88075e-79
8.87586e-78
7.93868e-77
7.06931e-76
6.26715e-75
5.53094e-74
4.85888e-73
4.24868e-72
3.69761e-71
3.20265e-70
2.76049e-69
2.36767e-68
2.02061e-67
1.71568e-66
1.44927e-65
1.21783e-64
1.01792e-63
8.46242e-63
6.99667e-62
5.75262e-61
4.70305e-60
3.8229e-59
3.08934e-58
2.48172e-57
1.98159e-56
1.57255e-55
1.24017e-54
9.71834e-54
7.56647e-53
5.85242e-52
4.49642e-51
3.43113e-50
2.60011e-49
1.95649e-48
1.46162e-47
1.08395e-46
7.97886e-46
5.82862e-45
4.22496e-44
3.0384e-43
2.16754e-42
1.53362e-41
1.07604e-40
7.4855e-40
5.16207e-39
3.52822e-38
2.38967e-37
1.60356e-36
1.06589e-35
7.01658e-35
4.57337e-34
2.95086e-33
1.88435e-32
1.19062e-31
7.44181e-31
4.60007e-30
2.81137e-29
1.69832e-28
1.01378e-27
5.97817e-27
3.4814e-26
2.00154e-25
1.13568e-24
6.35734e-24
3.50969e-23
1.91017e-22
1.02451e-21
5.41276e-21
2.81578e-20
1.44165e-19
7.26107e-19
3.59589e-18
1.75007e-17
8.3659e-17
3.92586e-16
1.80744e-15
8.15885e-15
3.60866e-14
1.56284e-13
6.62251e-13
2.74369e-12
1.11045e-11
4.38682e-11
1.69002e-10
6.34328e-10
2.31727e-09
8.23038e-09
2.8389e-08
9.49841e-08
3.07872e-07
9.65446e-07
2.92487e-06
8.54783e-06
2.40596e-05
6.51149e-05
0.000169151
0.000420994
0.00100199
0.00227614
0.0049252
0.0101318
0.0197774
0.0365683
0.0639486
0.105642
0.164752
0.242559
0.337423
0.444352
0.555648
0.662577
0.757441
0.835248
0.894358
0.936051
0.963432
0.980223
0.989868
0.995075
0.997724
0.998998
0.999579
0.999831
0.999935
0.999976
0.999991
0.999997
0.999999
1
1
1
1
1
1
1
1
1
1
1
1
1
1
1
1
1
1
1
1
1
1
1
1
1
1
1
1
1
1
1
1
1
1
1
1
1
1
1
1
1
1
1
1
1
1
1
1
1
1
1
1
1
1
1
1
1
1
1
1
1
1
0.999999
0.999997
0.999991
0.999976
0.999935
0.999831
0.999579
0.998998
0.997724
0.995075
0.989868
0.980223
0.963432
0.936051
0.894358
0.835248
0.757441
0.662577
0.555648
0.444352
0.337423
0.242559
0.164752
0.105642
0.0639486
0.0365683
0.0197774
0.0101318
0.0049252
0.00227614
0.00100199
0.000420994
0.000169151
6.51149e-05
2.40596e-05
8.54783e-06
2.92487e-06
9.65446e-07
3.07872e-07
9.49841e-08
2.8389e-08
8.23038e-09
2.31727e-09
6.34328e-10
1.69002e-10
4.38682e-11
1.11045e-11
2.74369e-12
6.62251e-13
1.56284e-13
3.60866e-14
8.15885e-15
1.80744e-15
3.92586e-16
8.3659e-17
1.75007e-17
3.59589e-18
7.26107e-19
1.44165e-19
2.81578e-20
5.41276e-21
1.02451e-21
1.91017e-22
3.50969e-23
6.35734e-24
1.13568e-24
2.00154e-25
3.4814e-26
5.97817e-27
1.01378e-27
1.69832e-28
2.81137e-29
4.60007e-30
7.44181e-31
1.19062e-31
1.88435e-32
2.95086e-33
4.57337e-34
7.01658e-35
1.06589e-35
1.60356e-36
2.38967e-37
3.52822e-38
5.16207e-39
7.4855e-40
1.07604e-40
1.53362e-41
2.16754e-42
3.0384e-43
4.22496e-44
5.82862e-45
7.97886e-46
1.08395e-46
1.46162e-47
1.95649e-48
2.60011e-49
3.43113e-50
4.49642e-51
5.85242e-52
7.56647e-53
9.71834e-54
1.24017e-54
1.57255e-55
1.98159e-56
2.48172e-57
3.08934e-58
3.8229e-59
4.70305e-60
5.75262e-61
6.99667e-62
8.46242e-63
1.01792e-63
1.21783e-64
1.44927e-65
1.71568e-66
2.02061e-67
2.36767e-68
2.76049e-69
3.20265e-70
3.69761e-71
4.24868e-72
4.85888e-73
5.53094e-74
6.26715e-75
7.06931e-76
7.93868e-77
8.87586e-78
9.88075e-79
1.09525e-79
1.20894e-80
1.32888e-81
1.45475e-82
1.5861e-83
1.72241e-84
1.86307e-85
2.00739e-86
2.15459e-87
2.30383e-88
2.4542e-89
2.60474e-90
2.75443e-91
2.90225e-92
3.04713e-93
3.18801e-94
3.32384e-95
3.45358e-96
3.57625e-97
3.69089e-98
3.79663e-99
3.89264e-100
3.97821e-101
4.0527e-102
4.11557e-103
4.1664e-104
4.20487e-105
4.23078e-106
4.24403e-107
4.24467e-108
4.23281e-109
4.20871e-110
4.17271e-111
4.12524e-112
4.06684e-113
3.9981e-114
3.91971e-115
3.83239e-116
3.73691e-117
3.6341e-118
3.5248e-119
3.40987e-120
3.29016e-121
3.16654e-122
3.03986e-123
2.91095e-124
2.78059e-125
2.64956e-126
2.51858e-127
2.38832e-128
2.25941e-129
2.13242e-130
2.00788e-131
1.88625e-132
1.76794e-133
1.65329e-134
1.54262e-135
1.43616e-136
1.3341e-137
1.2366e-138
1.14376e-139
1.05562e-140
9.72218e-142
8.93526e-143
8.19498e-144
7.50058e-145
6.85102e-146
6.24507e-147
5.68133e-148
5.15823e-149
4.67409e-150
4.22715e-151
3.81557e-152
3.43748e-153
3.09098e-154
2.77419e-155
2.48524e-156
2.22227e-157
1.98349e-158
1.76716e-159
1.57159e-160
1.39518e-161
1.23638e-162
1.09373e-163
9.65866e-165
8.51479e-166
7.49357e-167
6.58367e-168
5.77454e-169
5.05642e-170
4.42029e-171
3.85787e-172
3.36154e-173
2.92434e-174
2.53995e-175
2.20258e-176
1.90703e-177
1.64855e-178
1.42291e-179
1.22627e-180
1.05519e-181
9.06615e-183
7.77789e-184
6.66278e-185
5.69912e-186
4.8677e-187
4.15155e-188
3.53565e-189
3.00682e-190
2.55347e-191
2.16541e-192
1.83376e-193
1.55076e-194
1.30963e-195
1.10448e-196
9.30202e-198
7.82372e-199
6.57157e-200
5.51251e-201
4.61804e-202
3.86366e-203
3.22832e-204
2.69398e-205
2.24522e-206
1.86883e-207
1.55359e-208
1.28991e-209
1.06965e-210
8.85908e-212
7.32832e-213
6.0547e-214
4.9964e-215
4.11814e-216
3.39022e-217
2.78767e-218
2.28953e-219
1.87821e-220
1.539e-221
1.25961e-222
1.02976e-223
8.40904e-225
6.85908e-226
5.58857e-227
4.54834e-228
3.69765e-229
3.00278e-230
2.43583e-231
1.9738e-232
1.59769e-233
1.29187e-234
1.04348e-235
8.4196e-237
6.7865e-238
5.46448e-239
4.39545e-240
3.53194e-241
2.83518e-242
2.27357e-243
1.82137e-244
1.45766e-245
1.16542e-246
9.30847e-248
7.42763e-249
5.92105e-250
4.71549e-251
3.75178e-252
2.98218e-253
2.36819e-254
1.87884e-255
1.48921e-256
1.17928e-257
9.32986e-259
7.37453e-260
5.82366e-261
4.59475e-262
3.6219e-263
2.85246e-264
2.24448e-265
1.76452e-266
1.38597e-267
1.08768e-268
8.52842e-270
6.68129e-271
5.22971e-272
4.09e-273
3.19595e-274
2.49522e-275
1.94649e-276
1.51716e-277
1.18155e-278
9.19413e-280
7.14849e-281
5.55345e-282
4.3108e-283
3.34352e-284
2.59119e-285
2.00655e-286
1.55258e-287
1.20037e-288
9.27337e-290
7.15847e-291
5.52161e-292
4.25575e-293
3.27758e-294
2.52231e-295
1.93961e-296
1.4904e-297
1.14437e-298
8.78021e-300
6.73165e-301
5.15724e-302
3.94816e-303
3.02033e-304
2.30887e-305
1.76373e-306
1.34633e-307
1.02698e-308
7.8282e-310
5.96288e-311
4.53884e-312
3.45247e-313
2.6243e-314
1.99341e-315
1.51315e-316
1.14781e-317
8.70079e-319
6.59084e-320
4.98512e-321
3.7549e-322
2.47033e-323
0
0
0
0
0
0
0
0
0
0
0
0
0
0
0
0
0
0
0
0
0
0
0
0
0
0
0
0
0
0
0
0
0
0
0
0
0
0
0
0
0
0
0
0
0
0
0
0
0
0
0
0
0
0
0
0
0
0
0
0
0
0
0
0
0
0
0
0
0
0
0
0
0
0
0
0
0
0
0
0
0
0
0
0
0
0
0
0
0
0
0
0
0
0
0
0
0
0
0
0
0
0
0
0
0
0
0
0
0
0
0
)
;

boundaryField
{
    sides
    {
        type            zeroGradient;
    }
    empty
    {
        type            empty;
    }
}


// ************************************************************************* //
