/*--------------------------------*- C++ -*----------------------------------*\
| =========                 |                                                 |
| \\      /  F ield         | OpenFOAM: The Open Source CFD Toolbox           |
|  \\    /   O peration     | Version:  2312                                  |
|   \\  /    A nd           | Website:  www.openfoam.com                      |
|    \\/     M anipulation  |                                                 |
\*---------------------------------------------------------------------------*/
FoamFile
{
    version     2.0;
    format      ascii;
    arch        "LSB;label=32;scalar=64";
    class       volScalarField;
    location    "3.2";
    object      T;
}
// * * * * * * * * * * * * * * * * * * * * * * * * * * * * * * * * * * * * * //

dimensions      [0 0 0 1 0 0 0];

internalField   nonuniform List<scalar> 
1000
(
1.99461e-08
2.00034e-08
2.01613e-08
2.04205e-08
2.07821e-08
2.12478e-08
2.18195e-08
2.24998e-08
2.32917e-08
2.41987e-08
2.52247e-08
2.63743e-08
2.76525e-08
2.90648e-08
3.06173e-08
3.2317e-08
3.4171e-08
3.61873e-08
3.83748e-08
4.07427e-08
4.33011e-08
4.6061e-08
4.90341e-08
5.22329e-08
5.5671e-08
5.93627e-08
6.33235e-08
6.75699e-08
7.21194e-08
7.6991e-08
8.22045e-08
8.77814e-08
9.37443e-08
1.00117e-07
1.06927e-07
1.14199e-07
1.21964e-07
1.30253e-07
1.39098e-07
1.48533e-07
1.58598e-07
1.69329e-07
1.8077e-07
1.92965e-07
2.0596e-07
2.19805e-07
2.34554e-07
2.50261e-07
2.66987e-07
2.84795e-07
3.0375e-07
3.23923e-07
3.45389e-07
3.68226e-07
3.9252e-07
4.18357e-07
4.45832e-07
4.75043e-07
5.06095e-07
5.391e-07
5.74174e-07
6.1144e-07
6.51031e-07
6.93083e-07
7.37743e-07
7.85166e-07
8.35514e-07
8.88959e-07
9.45684e-07
1.00588e-06
1.06975e-06
1.1375e-06
1.20937e-06
1.28559e-06
1.3664e-06
1.45209e-06
1.54291e-06
1.63918e-06
1.74119e-06
1.84927e-06
1.96377e-06
2.08505e-06
2.21349e-06
2.3495e-06
2.49349e-06
2.64591e-06
2.80723e-06
2.97794e-06
3.15857e-06
3.34965e-06
3.55176e-06
3.76551e-06
3.99153e-06
4.23048e-06
4.48308e-06
4.75005e-06
5.03216e-06
5.33025e-06
5.64515e-06
5.97776e-06
6.32903e-06
6.69995e-06
7.09155e-06
7.50492e-06
7.94121e-06
8.40161e-06
8.88738e-06
9.39985e-06
9.94039e-06
1.05104e-05
1.11116e-05
1.17453e-05
1.24133e-05
1.31174e-05
1.38594e-05
1.46411e-05
1.54647e-05
1.63321e-05
1.72457e-05
1.82077e-05
1.92204e-05
2.02865e-05
2.14085e-05
2.25893e-05
2.38316e-05
2.51386e-05
2.65132e-05
2.7959e-05
2.94791e-05
3.10773e-05
3.27573e-05
3.45231e-05
3.63786e-05
3.83281e-05
4.03761e-05
4.25273e-05
4.47865e-05
4.71587e-05
4.96492e-05
5.22634e-05
5.50072e-05
5.78865e-05
6.09075e-05
6.40766e-05
6.74007e-05
7.08868e-05
7.45421e-05
7.83743e-05
8.23913e-05
8.66015e-05
9.10133e-05
9.56358e-05
0.000100478
0.00010555
0.000110862
0.000116423
0.000122246
0.000128341
0.00013472
0.000141395
0.000148379
0.000155685
0.000163327
0.000171318
0.000179674
0.00018841
0.000197541
0.000207084
0.000217057
0.000227476
0.00023836
0.000249728
0.0002616
0.000273996
0.000286937
0.000300444
0.000314542
0.000329252
0.0003446
0.00036061
0.000377309
0.000394722
0.000412879
0.000431807
0.000451537
0.000472099
0.000493525
0.000515847
0.0005391
0.000563318
0.000588538
0.000614796
0.000642132
0.000670585
0.000700196
0.000731008
0.000763063
0.000796407
0.000831087
0.000867149
0.000904644
0.000943621
0.000984134
0.00102624
0.00106998
0.00111543
0.00116264
0.00121167
0.00126258
0.00131544
0.00137031
0.00142726
0.00148636
0.00154769
0.0016113
0.00167729
0.00174572
0.00181668
0.00189025
0.00196652
0.00204556
0.00212746
0.00221233
0.00230024
0.0023913
0.0024856
0.00258324
0.00268433
0.00278897
0.00289726
0.00300932
0.00312526
0.0032452
0.00336924
0.00349752
0.00363016
0.00376728
0.00390901
0.00405548
0.00420683
0.0043632
0.00452472
0.00469153
0.0048638
0.00504165
0.00522525
0.00541475
0.00561031
0.0058121
0.00602026
0.00623498
0.00645642
0.00668476
0.00692017
0.00716284
0.00741294
0.00767066
0.0079362
0.00820974
0.00849149
0.00878163
0.00908037
0.00938793
0.00970449
0.0100303
0.0103655
0.0107104
0.0110652
0.0114301
0.0118053
0.012191
0.0125876
0.0129952
0.013414
0.0138444
0.0142865
0.0147406
0.015207
0.0156858
0.0161774
0.016682
0.0171999
0.0177313
0.0182765
0.0188358
0.0194094
0.0199975
0.0206006
0.0212188
0.0218524
0.0225017
0.023167
0.0238486
0.0245466
0.0252615
0.0259935
0.0267429
0.0275099
0.0282949
0.0290981
0.0299199
0.0307605
0.0316201
0.0324992
0.0333979
0.0343166
0.0352555
0.0362149
0.0371952
0.0381965
0.0392192
0.0402635
0.0413298
0.0424183
0.0435292
0.0446629
0.0458196
0.0469995
0.048203
0.0494303
0.0506816
0.0519572
0.0532573
0.0545823
0.0559322
0.0573075
0.0587082
0.0601346
0.0615869
0.0630654
0.0645702
0.0661016
0.0676597
0.0692447
0.0708569
0.0724963
0.0741631
0.0758576
0.0775798
0.0793299
0.081108
0.0829142
0.0847488
0.0866116
0.088503
0.0904229
0.0923714
0.0943486
0.0963546
0.0983893
0.100453
0.102545
0.104666
0.106817
0.108996
0.111203
0.11344
0.115705
0.117999
0.120321
0.122672
0.125052
0.127459
0.129895
0.132359
0.13485
0.137369
0.139916
0.14249
0.14509
0.147718
0.150372
0.153053
0.155759
0.158491
0.161249
0.164031
0.166839
0.16967
0.172526
0.175405
0.178307
0.181232
0.184179
0.187148
0.190139
0.19315
0.196182
0.199233
0.202304
0.205393
0.208501
0.211626
0.214768
0.217927
0.221101
0.22429
0.227494
0.230711
0.233941
0.237184
0.240438
0.243703
0.246978
0.250262
0.253555
0.256855
0.260163
0.263476
0.266795
0.270118
0.273444
0.276773
0.280104
0.283436
0.286767
0.290098
0.293427
0.296752
0.300075
0.303392
0.306703
0.310008
0.313305
0.316594
0.319873
0.323141
0.326397
0.329641
0.332871
0.336087
0.339286
0.342469
0.345634
0.34878
0.351907
0.355012
0.358095
0.361156
0.364192
0.367204
0.370189
0.373147
0.376077
0.378978
0.381849
0.384688
0.387496
0.39027
0.39301
0.395715
0.398383
0.401015
0.403608
0.406162
0.408677
0.41115
0.413581
0.41597
0.418315
0.420616
0.422871
0.42508
0.427241
0.429355
0.43142
0.433436
0.435401
0.437315
0.439177
0.440986
0.442743
0.444445
0.446093
0.447685
0.449222
0.450701
0.452124
0.453489
0.454796
0.456044
0.457233
0.458362
0.459431
0.46044
0.461387
0.462273
0.463097
0.463859
0.464559
0.465195
0.465769
0.46628
0.466728
0.467111
0.467432
0.467688
0.46788
0.468008
0.468072
0.468072
0.468008
0.46788
0.467688
0.467432
0.467111
0.466728
0.46628
0.465769
0.465195
0.464559
0.463859
0.463097
0.462273
0.461387
0.46044
0.459431
0.458362
0.457233
0.456044
0.454796
0.453489
0.452124
0.450701
0.449222
0.447685
0.446093
0.444445
0.442743
0.440986
0.439177
0.437315
0.435401
0.433436
0.43142
0.429355
0.427241
0.42508
0.422871
0.420616
0.418315
0.41597
0.413581
0.41115
0.408677
0.406162
0.403608
0.401015
0.398383
0.395715
0.39301
0.39027
0.387496
0.384688
0.381849
0.378978
0.376077
0.373147
0.370189
0.367204
0.364192
0.361156
0.358095
0.355012
0.351907
0.34878
0.345634
0.342469
0.339286
0.336087
0.332871
0.329641
0.326397
0.323141
0.319873
0.316594
0.313305
0.310008
0.306703
0.303392
0.300075
0.296752
0.293427
0.290098
0.286767
0.283436
0.280104
0.276773
0.273444
0.270118
0.266795
0.263476
0.260163
0.256855
0.253555
0.250262
0.246978
0.243703
0.240438
0.237184
0.233941
0.230711
0.227494
0.22429
0.221101
0.217927
0.214768
0.211626
0.208501
0.205393
0.202304
0.199233
0.196182
0.19315
0.190139
0.187148
0.184179
0.181232
0.178307
0.175405
0.172526
0.16967
0.166839
0.164031
0.161249
0.158491
0.155759
0.153053
0.150372
0.147718
0.14509
0.14249
0.139916
0.137369
0.13485
0.132359
0.129895
0.127459
0.125052
0.122672
0.120321
0.117999
0.115705
0.11344
0.111203
0.108996
0.106817
0.104666
0.102545
0.100453
0.0983893
0.0963546
0.0943486
0.0923714
0.0904229
0.088503
0.0866116
0.0847488
0.0829142
0.081108
0.0793299
0.0775798
0.0758576
0.0741631
0.0724963
0.0708569
0.0692447
0.0676597
0.0661016
0.0645702
0.0630654
0.0615869
0.0601346
0.0587082
0.0573075
0.0559322
0.0545823
0.0532573
0.0519572
0.0506816
0.0494303
0.048203
0.0469995
0.0458196
0.0446629
0.0435292
0.0424183
0.0413298
0.0402635
0.0392192
0.0381965
0.0371952
0.0362149
0.0352555
0.0343166
0.0333979
0.0324992
0.0316201
0.0307605
0.0299199
0.0290981
0.0282949
0.0275099
0.0267429
0.0259935
0.0252615
0.0245466
0.0238486
0.023167
0.0225017
0.0218524
0.0212188
0.0206006
0.0199975
0.0194094
0.0188358
0.0182765
0.0177313
0.0171999
0.016682
0.0161774
0.0156858
0.015207
0.0147406
0.0142865
0.0138444
0.013414
0.0129952
0.0125876
0.012191
0.0118053
0.0114301
0.0110652
0.0107104
0.0103655
0.0100303
0.00970449
0.00938793
0.00908037
0.00878163
0.00849149
0.00820974
0.0079362
0.00767066
0.00741294
0.00716284
0.00692017
0.00668476
0.00645642
0.00623498
0.00602026
0.0058121
0.00561031
0.00541475
0.00522525
0.00504165
0.0048638
0.00469153
0.00452472
0.0043632
0.00420683
0.00405548
0.00390901
0.00376728
0.00363016
0.00349752
0.00336924
0.0032452
0.00312526
0.00300932
0.00289726
0.00278897
0.00268433
0.00258324
0.0024856
0.0023913
0.00230024
0.00221233
0.00212746
0.00204556
0.00196652
0.00189025
0.00181668
0.00174572
0.00167729
0.0016113
0.00154769
0.00148636
0.00142726
0.00137031
0.00131544
0.00126258
0.00121167
0.00116264
0.00111543
0.00106998
0.00102624
0.000984134
0.000943621
0.000904644
0.000867149
0.000831087
0.000796407
0.000763063
0.000731008
0.000700196
0.000670585
0.000642132
0.000614796
0.000588538
0.000563318
0.0005391
0.000515847
0.000493525
0.000472099
0.000451537
0.000431807
0.000412879
0.000394722
0.000377309
0.00036061
0.0003446
0.000329252
0.000314542
0.000300444
0.000286937
0.000273996
0.0002616
0.000249728
0.00023836
0.000227476
0.000217057
0.000207084
0.000197541
0.00018841
0.000179674
0.000171318
0.000163327
0.000155685
0.000148379
0.000141395
0.00013472
0.000128341
0.000122246
0.000116423
0.000110862
0.00010555
0.000100478
9.56358e-05
9.10133e-05
8.66015e-05
8.23913e-05
7.83743e-05
7.45421e-05
7.08868e-05
6.74007e-05
6.40766e-05
6.09075e-05
5.78865e-05
5.50072e-05
5.22634e-05
4.96492e-05
4.71587e-05
4.47865e-05
4.25273e-05
4.03761e-05
3.83281e-05
3.63786e-05
3.45231e-05
3.27573e-05
3.10773e-05
2.94791e-05
2.7959e-05
2.65132e-05
2.51386e-05
2.38316e-05
2.25893e-05
2.14085e-05
2.02865e-05
1.92204e-05
1.82077e-05
1.72457e-05
1.63321e-05
1.54647e-05
1.46411e-05
1.38594e-05
1.31174e-05
1.24133e-05
1.17453e-05
1.11116e-05
1.05104e-05
9.94039e-06
9.39985e-06
8.88738e-06
8.40161e-06
7.94121e-06
7.50492e-06
7.09155e-06
6.69995e-06
6.32903e-06
5.97776e-06
5.64515e-06
5.33025e-06
5.03216e-06
4.75005e-06
4.48308e-06
4.23048e-06
3.99153e-06
3.76551e-06
3.55176e-06
3.34965e-06
3.15857e-06
2.97794e-06
2.80723e-06
2.64591e-06
2.49349e-06
2.3495e-06
2.21349e-06
2.08505e-06
1.96377e-06
1.84927e-06
1.74119e-06
1.63918e-06
1.54291e-06
1.45209e-06
1.3664e-06
1.28559e-06
1.20937e-06
1.1375e-06
1.06975e-06
1.00588e-06
9.45684e-07
8.88959e-07
8.35514e-07
7.85166e-07
7.37743e-07
6.93083e-07
6.51031e-07
6.1144e-07
5.74174e-07
5.391e-07
5.06095e-07
4.75043e-07
4.45832e-07
4.18357e-07
3.9252e-07
3.68226e-07
3.45389e-07
3.23923e-07
3.0375e-07
2.84795e-07
2.66987e-07
2.50261e-07
2.34554e-07
2.19805e-07
2.0596e-07
1.92965e-07
1.8077e-07
1.69329e-07
1.58598e-07
1.48533e-07
1.39098e-07
1.30253e-07
1.21964e-07
1.14199e-07
1.06927e-07
1.00117e-07
9.37443e-08
8.77814e-08
8.22045e-08
7.6991e-08
7.21194e-08
6.75699e-08
6.33235e-08
5.93627e-08
5.5671e-08
5.22329e-08
4.90341e-08
4.6061e-08
4.33011e-08
4.07427e-08
3.83748e-08
3.61873e-08
3.4171e-08
3.2317e-08
3.06173e-08
2.90648e-08
2.76525e-08
2.63743e-08
2.52247e-08
2.41987e-08
2.32917e-08
2.24998e-08
2.18195e-08
2.12478e-08
2.07821e-08
2.04205e-08
2.01613e-08
2.00034e-08
1.99461e-08
)
;

boundaryField
{
    sides
    {
        type            zeroGradient;
    }
    empty
    {
        type            empty;
    }
}


// ************************************************************************* //
