/*--------------------------------*- C++ -*----------------------------------*\
| =========                 |                                                 |
| \\      /  F ield         | OpenFOAM: The Open Source CFD Toolbox           |
|  \\    /   O peration     | Version:  2312                                  |
|   \\  /    A nd           | Website:  www.openfoam.com                      |
|    \\/     M anipulation  |                                                 |
\*---------------------------------------------------------------------------*/
FoamFile
{
    version     2.0;
    format      ascii;
    arch        "LSB;label=32;scalar=64";
    class       volScalarField;
    location    "2.2";
    object      T;
}
// * * * * * * * * * * * * * * * * * * * * * * * * * * * * * * * * * * * * * //

dimensions      [0 0 0 1 0 0 0];

internalField   nonuniform List<scalar> 
1000
(
0
0
0
0
0
0
0
0
0
0
0
0
0
0
0
0
0
0
0
0
0
0
0
0
0
0
0
0
0
0
0
0
0
0
0
0
0
0
0
0
0
-1.08694e-322
1.38832e-321
-1.79692e-320
2.34024e-319
-3.03631e-318
3.92666e-317
-5.06156e-316
6.50318e-315
-8.32807e-314
1.06301e-312
-1.35239e-311
1.71488e-310
-2.16734e-309
2.73013e-308
-3.42764e-307
4.28904e-306
-5.34903e-305
6.64868e-304
-8.23643e-303
1.01691e-301
-1.25129e-300
1.5345e-299
-1.87544e-298
2.28435e-297
-2.77296e-296
3.3546e-295
-4.04436e-294
4.85923e-293
-5.81821e-292
6.94246e-291
-8.25531e-290
9.78243e-289
-1.15518e-287
1.35936e-286
-1.59406e-285
1.86272e-284
-2.16903e-283
2.51682e-282
-2.91006e-281
3.35283e-280
-3.84926e-279
4.40346e-278
-5.01948e-277
5.70119e-276
-6.45225e-275
7.27596e-274
-8.17522e-273
9.15237e-272
-1.02091e-270
1.13464e-269
-1.25644e-268
1.38621e-267
-1.52377e-266
1.66881e-265
-1.82091e-264
1.9795e-263
-2.14392e-262
2.31333e-261
-2.48679e-260
2.66324e-259
-2.84147e-258
3.0202e-257
-3.19802e-256
3.37345e-255
-3.54495e-254
3.71093e-253
-3.8698e-252
4.01996e-251
-4.15983e-250
4.28792e-249
-4.40279e-248
4.50313e-247
-4.58777e-246
4.65567e-245
-4.706e-244
4.73809e-243
-4.75153e-242
4.74607e-241
-4.72172e-240
4.6787e-239
-4.61748e-238
4.5387e-237
-4.44324e-236
4.33215e-235
-4.20665e-234
4.06811e-233
-3.918e-232
3.75792e-231
-3.5895e-230
3.41443e-229
-3.23439e-228
3.05106e-227
-2.86607e-226
2.68098e-225
-2.49727e-224
2.31629e-223
-2.13929e-222
1.96739e-221
-1.80155e-220
1.6426e-219
-1.49121e-218
1.3479e-217
-1.21307e-216
1.08696e-215
-9.69683e-215
8.61255e-214
-7.61569e-213
6.70433e-212
-5.87573e-211
5.12649e-210
-4.4527e-209
3.85001e-208
-3.31382e-207
2.83933e-206
-2.42166e-205
2.05595e-204
-1.73742e-203
1.46145e-202
-1.2236e-201
1.01967e-200
-8.45744e-200
6.98179e-199
-5.73633e-198
4.69064e-197
-3.81724e-196
3.09157e-195
-2.49177e-194
1.99861e-193
-1.59526e-192
1.26708e-191
-1.00147e-190
7.87624e-190
-6.1637e-189
4.79946e-188
-3.71845e-187
2.86641e-186
-2.19841e-185
1.67751e-184
-1.27348e-183
9.61797e-183
-7.22641e-182
5.40131e-181
-4.01606e-180
2.9704e-179
-2.18539e-178
1.59931e-177
-1.16415e-176
8.42843e-176
-6.06922e-175
4.34664e-174
-3.09597e-173
2.19303e-172
-1.54485e-171
1.0822e-170
-7.53861e-170
5.22185e-169
-3.59659e-168
2.46306e-167
-1.67711e-166
1.13537e-165
-7.64154e-165
5.11304e-164
-3.40106e-163
2.2489e-162
-1.47818e-161
9.65762e-161
-6.27161e-160
4.04796e-159
-2.59671e-158
1.65547e-157
-1.04884e-156
6.60339e-156
-4.13119e-155
2.56811e-154
-1.58621e-153
9.73405e-153
-5.9346e-152
3.59444e-151
-2.16266e-150
1.29253e-149
-7.67301e-149
4.52413e-148
-2.64927e-147
1.54067e-146
-8.89741e-146
5.10219e-145
-2.90511e-144
1.6423e-143
-9.21716e-143
5.1353e-142
-2.84006e-141
1.55901e-140
-8.49377e-140
4.59246e-139
-2.46406e-138
1.31183e-137
-6.92938e-137
3.63127e-136
-1.88769e-135
9.73358e-135
-4.97784e-134
2.5246e-133
-1.26965e-132
6.33088e-132
-3.1296e-131
1.53359e-130
-7.44848e-130
3.58521e-129
-1.70999e-128
8.08059e-128
-3.78273e-127
1.75394e-126
-8.05384e-126
3.66187e-125
-1.64831e-124
7.34408e-124
-3.23828e-123
1.41281e-122
-6.09759e-122
2.6028e-121
-1.09858e-120
4.58375e-120
-1.89015e-119
7.70079e-119
-3.0989e-118
1.23132e-117
-4.82922e-117
1.86879e-116
-7.13251e-116
2.68367e-115
-9.94969e-115
3.63285e-114
-1.30552e-113
4.6145e-113
-1.60305e-112
5.4686e-112
-1.83016e-111
6.00188e-111
-1.92616e-110
6.03963e-110
-1.8467e-109
5.49283e-109
-1.58441e-108
4.41399e-108
-1.18094e-107
3.0093e-107
-7.20892e-107
1.58654e-106
-3.05707e-106
4.49147e-106
-1.64451e-106
-2.18711e-105
1.16751e-104
-4.1624e-104
1.21506e-103
-3.01402e-103
6.18857e-103
-9.1194e-103
1.70774e-103
5.20062e-102
-2.49881e-101
7.98602e-101
-1.98237e-100
3.70234e-100
-3.61773e-100
-8.03875e-100
5.8896e-99
-2.05438e-98
5.10842e-98
-8.74888e-98
4.49345e-98
3.72567e-97
-1.86099e-96
5.40343e-96
-1.05404e-95
8.92997e-96
3.07502e-95
-1.82003e-94
5.3879e-94
-1.00125e-93
5.60928e-94
4.13083e-93
-1.97181e-92
5.05045e-92
-7.03359e-92
-4.89077e-92
6.27436e-91
-2.0544e-90
3.7403e-90
-1.00752e-90
-1.96412e-89
7.78234e-89
-1.58991e-88
8.64131e-89
6.78475e-88
-2.92474e-87
6.02435e-87
-2.82601e-87
-2.73838e-86
1.10557e-85
-2.04955e-85
8.20776e-87
1.2258e-84
-4.07572e-84
5.79605e-84
6.09673e-84
-5.46684e-83
1.36104e-82
-9.60774e-83
-5.23519e-82
2.19004e-81
-3.52342e-81
-2.52295e-81
2.86694e-80
-6.97348e-80
3.29945e-80
3.20264e-79
-1.116e-78
1.26804e-78
3.05465e-78
-1.60123e-77
2.60444e-77
2.35152e-77
-2.1681e-76
4.39953e-76
1.11938e-76
-2.86946e-75
6.74813e-75
-4.64312e-76
-3.81462e-74
9.77988e-74
-1.95481e-74
-5.19071e-73
1.36217e-72
-2.42182e-73
-7.28022e-72
1.82839e-71
-1.02026e-73
-1.04536e-70
2.34126e-70
8.03973e-71
-1.50902e-69
2.78461e-69
2.66299e-69
-2.13453e-68
2.89721e-68
6.15347e-68
-2.8664e-67
2.20861e-67
1.17804e-66
-3.49982e-66
3.81805e-68
1.94552e-65
-3.59325e-65
-4.31665e-65
2.76129e-64
-2.44656e-64
-1.10403e-63
3.22064e-63
7.06636e-64
-1.88477e-62
2.64915e-62
6.11729e-62
-2.39772e-61
3.28511e-62
1.25464e-60
-2.0244e-60
-3.87301e-60
1.64258e-59
-1.90641e-60
-8.5833e-59
1.24614e-58
2.97592e-58
-1.04681e-57
-2.81014e-58
5.92126e-57
-5.5774e-57
-2.49135e-56
5.79161e-56
6.7267e-56
-3.78343e-55
4.58518e-56
1.93955e-54
-2.18367e-54
-8.01363e-54
1.89855e-53
2.42585e-53
-1.20298e-52
-2.16519e-53
6.40491e-52
-4.07722e-52
-2.97954e-51
4.35051e-51
1.21063e-50
-3.07693e-50
-4.10289e-50
1.83376e-49
9.45926e-50
-9.86396e-49
8.12317e-50
4.93713e-48
-2.94657e-48
-2.33843e-47
2.55422e-47
1.05952e-46
-1.70625e-46
-4.62979e-46
1.01161e-45
1.96541e-45
-5.59433e-45
-8.17178e-45
2.95653e-44
3.36366e-44
-1.51426e-43
-1.39162e-43
7.58287e-43
5.90621e-43
-3.7335e-42
-2.63121e-42
1.81324e-41
1.25239e-41
-8.69729e-41
-6.38846e-41
4.11714e-40
3.44576e-40
-1.91831e-39
-1.92175e-39
8.75367e-39
1.08407e-38
-3.88106e-38
-6.07959e-38
1.65099e-37
3.34797e-37
-6.59759e-37
-1.79388e-36
2.37691e-36
9.27863e-36
-6.94907e-36
-4.59445e-35
9.6055e-36
2.15472e-34
7.18846e-35
-9.41767e-34
-8.81244e-34
3.72875e-33
6.37107e-33
-1.25755e-32
-3.7343e-32
2.96437e-32
1.89018e-31
1.28439e-32
-8.3054e-31
-7.36558e-31
3.05203e-30
5.90048e-30
-8.14593e-30
-3.33649e-29
4.09875e-30
1.49444e-28
1.3089e-28
-5.14228e-28
-1.1032e-27
1.0349e-27
5.87306e-27
2.1478e-27
-2.26192e-26
-3.56165e-26
5.3429e-26
2.15892e-25
4.3423e-26
-8.52672e-25
-1.28591e-24
1.86629e-24
7.86456e-24
3.0163e-24
-2.83445e-23
-5.26367e-23
4.06046e-23
2.75283e-22
2.44798e-22
-7.49468e-22
-2.14785e-21
-3.3116e-22
8.1286e-21
1.44478e-20
-8.86184e-21
-7.2347e-20
-8.68078e-20
1.37956e-19
5.81853e-19
4.8122e-19
-1.42096e-18
-4.44607e-18
-2.61726e-18
1.23665e-17
3.33397e-17
1.59088e-17
-9.70215e-17
-2.49962e-16
-1.24909e-16
6.96465e-16
1.8792e-15
1.22935e-15
-4.48315e-15
-1.39613e-14
-1.29225e-14
2.39072e-14
9.92452e-14
1.29493e-13
-7.56395e-14
-6.39015e-13
-1.16879e-12
-3.65816e-13
3.34364e-12
9.08291e-12
9.47436e-12
-9.60416e-12
-5.63136e-11
-1.02593e-10
-5.44073e-11
2.21353e-10
7.38055e-10
1.09315e-09
2.49991e-10
-3.07186e-09
-8.76222e-09
-1.24663e-08
-3.42636e-09
3.23485e-08
9.76028e-08
1.56266e-07
1.05041e-07
-2.20124e-07
-9.45664e-07
-1.92112e-06
-2.36475e-06
-5.87559e-07
5.77245e-06
1.8379e-05
3.51337e-05
4.54911e-05
2.5645e-05
-6.27304e-05
-0.000264015
-0.000602524
-0.00103123
-0.00135184
-0.00111079
0.0005122
0.0047947
0.0135033
0.028829
0.0531992
0.0889651
0.137995
0.201238
0.278351
0.367477
0.465256
0.567107
0.667734
0.761805
0.844654
0.91289
0.964778
1.00035
1.02119
1.03006
1.0303
1.02528
1.01796
1.01056
1.00447
1.00027
0.997973
0.997203
0.997432
0.998145
0.998953
0.999617
1.00005
1.00024
1.00028
1.00022
1.00013
1.00005
0.999999
0.999975
0.999972
0.999979
0.999989
0.999997
1
1
1
1
1
1
1
1
1
1
1
1
1
1
1
1
1
1
1
1
1
1
1
1
1
1
1
1
1
1
1
1
1
1
1
1
1
1
1
1
1
1
1
1
1
0.999994
0.999982
0.999965
0.999955
0.999974
1.00006
1.00026
1.0006
1.00103
1.00135
1.00111
0.999488
0.995205
0.986497
0.971171
0.946801
0.911035
0.862005
0.798762
0.721649
0.632523
0.534744
0.432893
0.332266
0.238195
0.155346
0.0871103
0.0352219
-0.000346275
-0.0211917
-0.0300607
-0.0302973
-0.0252817
-0.0179639
-0.0105645
-0.00446519
-0.000268136
0.00202738
0.00279654
0.00256835
0.00185463
0.00104748
0.000383008
-4.51498e-05
-0.000244831
-0.000277502
-0.000218071
-0.00012921
-5.05587e-05
9.25404e-07
2.45653e-05
2.80767e-05
2.11111e-05
1.14162e-05
3.48003e-06
-1.15114e-06
-2.80953e-06
-2.60302e-06
-1.64179e-06
-6.73163e-07
-3.09456e-08
2.4965e-07
2.78351e-07
1.90678e-07
8.577e-08
1.17528e-08
-2.24268e-08
-2.76994e-08
-1.93157e-08
-8.63673e-09
-1.13413e-09
2.21458e-09
2.63074e-09
1.74482e-09
7.10088e-10
3.40344e-11
-2.32116e-10
-2.35249e-10
-1.38853e-10
-4.56119e-11
7.41047e-12
2.33528e-11
1.90623e-11
9.32393e-12
1.84276e-12
-1.58287e-12
-2.07774e-12
-1.32789e-12
-4.78063e-13
2.64104e-14
1.85377e-13
1.54574e-13
7.35394e-14
1.27567e-14
-1.32211e-14
-1.55864e-14
-9.0558e-15
-2.67316e-15
6.48832e-16
1.4032e-15
9.71323e-16
3.67198e-16
-3.81391e-19
-1.15068e-16
-9.44637e-17
-4.17091e-17
-4.92829e-18
8.74391e-18
8.53837e-18
4.20361e-18
7.89672e-19
-6.27812e-19
-7.30058e-19
-3.88392e-19
-8.9463e-20
4.37344e-20
5.9841e-20
3.35015e-20
8.51954e-21
-3.06259e-21
-4.748e-21
-2.72659e-21
-7.18637e-22
2.23725e-22
3.66848e-22
2.10593e-22
5.47352e-23
-1.73864e-23
-2.76586e-23
-1.54679e-23
-3.77561e-24
1.42094e-24
2.03169e-24
1.07918e-24
2.33216e-25
-1.18198e-25
-1.44744e-25
-7.12265e-26
-1.24573e-26
9.67618e-27
9.93537e-27
4.41352e-27
5.1889e-28
-7.60957e-28
-6.51833e-28
-2.53597e-28
-9.46217e-30
5.66366e-29
4.05007e-29
1.32296e-29
-1.087e-30
-3.95269e-30
-2.35727e-30
-6.01128e-31
1.72073e-31
2.56905e-31
1.26685e-31
2.13597e-32
-1.613e-32
-1.54441e-32
-6.14945e-33
-3.33609e-34
1.21684e-33
8.51071e-34
2.58715e-34
-3.2043e-35
-7.92877e-35
-4.23913e-35
-8.49657e-36
4.28224e-36
4.56412e-36
1.86043e-36
1.27563e-37
-3.34779e-37
-2.32774e-37
-6.80253e-38
9.76942e-39
2.07641e-38
1.03862e-38
1.73792e-39
-1.20126e-39
-1.08987e-39
-3.90536e-40
1.09388e-42
8.35919e-41
4.89419e-41
1.10778e-41
-3.80068e-42
-4.52971e-42
-1.83747e-42
-1.23095e-43
3.08824e-43
2.02825e-43
5.28327e-44
-1.12822e-44
-1.7176e-44
-7.45487e-45
-7.44717e-46
1.0809e-45
7.56601e-46
2.07738e-46
-3.46459e-47
-6.04802e-47
-2.67031e-47
-2.85878e-48
3.66229e-48
2.57129e-48
6.95407e-49
-1.19153e-49
-1.99326e-49
-8.52348e-50
-7.8588e-51
1.20642e-50
7.98646e-51
1.99105e-51
-4.47118e-52
-6.13813e-52
-2.42146e-52
-1.33362e-53
3.8147e-53
2.25713e-53
4.78242e-54
-1.66501e-54
-1.7495e-54
-6.0522e-55
5.71853e-57
1.13226e-55
5.73868e-56
9.03736e-57
-5.71323e-57
-4.5472e-57
-1.29613e-57
1.52579e-58
3.08044e-58
1.28748e-58
1.04834e-59
-1.74118e-59
-1.05742e-59
-2.24115e-60
7.27011e-61
7.51352e-61
2.4668e-61
-7.78837e-63
-4.63243e-62
-2.14533e-62
-2.59912e-63
2.38737e-63
1.60689e-63
3.77415e-64
-8.82861e-65
-1.06295e-64
-3.6495e-65
2.16183e-67
6.19197e-66
2.92964e-66
3.72919e-67
-3.065e-67
-2.07082e-67
-4.78034e-68
1.13099e-68
1.31355e-68
4.3366e-69
-9.69486e-71
-7.46756e-70
-3.32837e-70
-3.48727e-71
3.71539e-71
2.27777e-71
4.60256e-72
-1.49712e-72
-1.41689e-72
-4.13192e-73
3.40824e-74
8.03937e-74
3.12475e-74
1.64033e-75
-4.11799e-75
-2.11431e-75
-3.1577e-76
1.84086e-76
1.31079e-76
3.04061e-77
-6.46911e-78
-7.51332e-78
-2.35289e-78
9.62879e-80
3.98048e-79
1.60959e-79
1.09863e-80
-1.92916e-80
-1.00845e-80
-1.52984e-81
8.31415e-82
5.87899e-82
1.32099e-82
-2.94434e-83
-3.21063e-83
-9.51084e-84
6.03656e-85
1.64381e-84
6.15141e-85
2.43274e-86
-7.84905e-86
-3.68319e-86
-4.32965e-87
3.44574e-87
2.07161e-87
3.80785e-88
-1.34453e-88
-1.10268e-88
-2.7086e-89
4.24402e-90
5.57228e-90
1.71839e-90
-6.71238e-92
-2.67293e-91
-1.00892e-91
-4.45066e-93
1.21251e-92
5.58231e-93
6.03162e-94
-4.87121e-94
)
;

boundaryField
{
    sides
    {
        type            zeroGradient;
    }
    empty
    {
        type            empty;
    }
}


// ************************************************************************* //
