/*--------------------------------*- C++ -*----------------------------------*\
| =========                 |                                                 |
| \\      /  F ield         | OpenFOAM: The Open Source CFD Toolbox           |
|  \\    /   O peration     | Version:  2312                                  |
|   \\  /    A nd           | Website:  www.openfoam.com                      |
|    \\/     M anipulation  |                                                 |
\*---------------------------------------------------------------------------*/
FoamFile
{
    version     2.0;
    format      ascii;
    arch        "LSB;label=32;scalar=64";
    class       volScalarField;
    location    "4";
    object      T;
}
// * * * * * * * * * * * * * * * * * * * * * * * * * * * * * * * * * * * * * //

dimensions      [0 0 0 1 0 0 0];

internalField   nonuniform List<scalar> 
1000
(
0
0
0
0
0
0
0
0
0
0
0
0
0
0
0
0
0
0
0
0
0
0
0
0
0
0
0
0
0
0
0
0
0
0
0
0
0
0
0
0
0
0
0
0
0
0
0
0
0
0
0
0
0
0
0
0
0
0
0
0
0
0
0
0
0
0
0
0
0
0
0
0
0
0
0
0
0
0
0
0
0
0
0
0
0
0
0
0
0
0
0
0
0
0
0
0
0
0
0
0
0
0
0
0
0
0
0
0
0
0
0
0
0
0
0
0
0
0
0
0
0
0
0
0
0
0
0
0
0
0
0
0
0
0
0
0
0
0
0
0
0
0
0
0
0
0
0
0
0
0
0
0
0
0
0
0
0
0
0
0
0
0
0
0
0
0
0
0
0
0
0
0
0
-4.94066e-324
2.96439e-323
-4.94066e-324
2.96439e-323
-4.94066e-324
2.96439e-323
-4.94066e-324
2.96439e-323
-4.94066e-324
2.96439e-323
-4.94066e-324
2.96439e-323
-4.94066e-324
2.96439e-323
-4.94066e-324
2.96439e-323
-4.94066e-324
2.96439e-323
-4.94066e-324
2.96439e-323
-4.94066e-324
2.96439e-323
-4.94066e-324
2.96439e-323
-4.94066e-324
2.96439e-323
-4.94066e-324
2.96439e-323
-4.94066e-324
2.96439e-323
-4.94066e-324
2.96439e-323
-4.94066e-324
2.96439e-323
-4.94066e-324
2.96439e-323
-4.94066e-324
2.96439e-323
-4.94066e-324
2.96439e-323
-4.94066e-324
2.96439e-323
-4.94066e-324
2.96439e-323
-4.94066e-324
2.96439e-323
-4.94066e-324
2.96439e-323
-4.94066e-324
2.96439e-323
-4.94066e-324
2.96439e-323
-4.94066e-324
2.96439e-323
-4.94066e-324
2.96439e-323
-4.94066e-324
2.96439e-323
-4.94066e-324
2.96439e-323
-4.94066e-324
2.96439e-323
-4.94066e-324
2.96439e-323
-4.94066e-324
2.96439e-323
-4.94066e-324
2.96439e-323
-4.94066e-324
2.96439e-323
-4.94066e-324
2.96439e-323
-4.94066e-324
2.96439e-323
-4.94066e-324
2.96439e-323
-4.94066e-324
2.96439e-323
-4.94066e-324
2.96439e-323
-4.94066e-324
2.96439e-323
-4.94066e-324
2.96439e-323
-4.94066e-324
9.88131e-324
2.96439e-323
5.43472e-323
7.41098e-323
9.88131e-323
1.18576e-322
1.43279e-322
1.63042e-322
1.87745e-322
2.12448e-322
2.37152e-322
2.61855e-322
2.86558e-322
3.06321e-322
3.26083e-322
3.45846e-322
3.65609e-322
4.15015e-322
4.00193e-322
3.7549e-322
3.55727e-322
3.35965e-322
3.16202e-322
2.96439e-322
2.76677e-322
2.51973e-322
2.2727e-322
2.02567e-322
1.77864e-322
1.5316e-322
1.33398e-322
1.08694e-322
8.89318e-323
6.42285e-323
4.44659e-323
1.97626e-323
-4.94066e-324
-2.96439e-323
-4.94066e-323
-7.41098e-323
-2.71736e-322
-3.65115e-321
-5.34628e-320
-7.39231e-319
-9.57954e-318
-1.16606e-316
-1.33697e-315
-1.44907e-314
-1.49193e-313
-1.46979e-312
-1.40111e-311
-1.31523e-310
-1.24456e-309
-1.21914e-308
-1.26124e-307
-1.39168e-306
-1.62439e-305
-1.9983e-304
-2.57017e-303
-3.64534e-302
-3.39653e-301
-3.37652e-301
5.01902e-300
1.63675e-298
2.3105e-296
3.33618e-294
2.81325e-292
1.57757e-290
6.48526e-289
2.07773e-287
5.4043e-286
1.17481e-284
2.18093e-283
3.5152e-282
4.98377e-281
6.28073e-280
7.09489e-279
7.22794e-278
6.66044e-277
5.55118e-276
4.26497e-275
3.32412e-274
3.14166e-273
3.92103e-272
5.90185e-271
9.49761e-270
1.54545e-268
2.13575e-267
4.31408e-267
-9.6558e-267
-2.88732e-265
-5.1928e-264
-1.05853e-262
-2.45168e-261
-5.75939e-260
-1.2646e-258
-2.50762e-257
-4.44881e-256
-7.06751e-255
-1.0099e-253
-1.30532e-252
-1.53456e-251
-1.64901e-250
-1.62842e-249
-1.49748e-248
-1.34188e-247
-1.28785e-246
-1.46526e-245
-2.00232e-244
-3.05998e-243
-4.89037e-242
-7.85307e-241
-3.32258e-240
1.95901e-241
9.28842e-239
1.67898e-237
3.02385e-236
6.13178e-235
1.34816e-233
2.97362e-232
6.20679e-231
1.18913e-229
2.06544e-228
3.2431e-227
4.61061e-226
5.95592e-225
7.02139e-224
7.58957e-223
7.55761e-222
6.97059e-221
5.99901e-220
4.894e-219
3.93164e-218
3.33407e-217
3.20454e-216
3.58354e-215
4.48619e-214
6.04087e-213
5.80963e-212
6.91846e-212
-3.6626e-211
-7.89917e-210
-1.42518e-208
-3.17391e-207
-8.34244e-206
-2.32889e-204
-6.32193e-203
-1.57624e-201
-3.51262e-200
-6.94084e-199
-1.21812e-197
-1.90924e-196
-2.69036e-195
-3.43185e-194
-3.99182e-193
-4.26526e-192
-4.21841e-191
-3.90147e-190
-3.43105e-189
-2.9477e-188
-2.55669e-187
-2.33279e-186
-2.33401e-185
-2.59358e-184
-3.07512e-183
-3.67824e-182
-1.63271e-181
-7.77191e-182
2.36957e-180
3.82086e-179
5.06221e-178
5.96782e-177
6.80632e-176
8.68459e-175
1.24313e-173
1.75813e-172
2.19797e-171
2.22288e-170
1.95531e-169
2.52233e-168
6.27645e-167
1.16493e-165
1.36706e-164
1.01605e-163
4.9436e-163
2.89528e-162
5.2397e-161
1.49624e-159
3.87901e-159
-1.61601e-158
-3.57778e-158
4.75747e-157
1.0245e-155
9.6268e-156
-2.67899e-154
-1.62938e-153
1.70385e-153
6.08431e-152
4.33053e-152
-1.88e-150
-1.65296e-149
-2.2903e-150
5.66111e-148
1.16981e-147
-6.40411e-147
-1.80306e-145
-4.23252e-145
6.79491e-145
1.75271e-144
-8.67337e-144
-1.31949e-142
-9.392e-142
-4.57389e-141
-1.90507e-140
-9.30856e-140
-5.85724e-139
-3.80633e-138
-2.10702e-137
-1.018e-136
-6.24823e-136
-6.92863e-135
-1.07623e-133
-1.78726e-132
-7.33756e-132
1.596e-132
9.80367e-131
5.27904e-131
-2.23185e-129
-4.05252e-128
-1.16905e-127
1.17669e-127
5.04533e-126
1.92476e-125
-6.51267e-126
-6.19063e-124
-5.62257e-123
-5.35655e-123
5.40995e-122
8.79835e-121
1.80981e-120
-3.29565e-120
-6.02749e-119
-6.35167e-119
5.13185e-118
9.42531e-117
1.15099e-115
2.90737e-115
-1.79351e-115
-8.21744e-114
-2.51458e-113
1.04386e-113
6.71996e-112
8.03802e-111
1.76685e-110
-1.44107e-110
-5.36558e-109
-5.40335e-108
-8.62853e-108
1.6062e-107
3.73638e-106
2.68453e-105
2.75361e-105
-1.40891e-104
-2.26051e-103
-1.62282e-102
-1.81812e-102
6.76523e-102
1.13229e-100
8.45965e-100
1.03804e-99
-2.74968e-99
-4.90755e-98
-4.5982e-97
-1.14298e-96
-4.92802e-98
1.66685e-95
1.7427e-94
5.5017e-94
2.43541e-94
-5.32617e-93
-5.9024e-92
-4.18711e-91
-6.37487e-91
5.90618e-91
1.51078e-89
1.40663e-88
6.98875e-88
7.01985e-88
-2.25161e-87
-3.18129e-86
-2.64407e-85
-9.29485e-85
-7.027e-85
4.78002e-84
5.35854e-83
4.03923e-82
1.09297e-81
5.83018e-82
-7.47314e-81
-7.37181e-80
-5.45504e-79
-3.74754e-78
-2.49993e-77
-1.64039e-76
-1.06246e-75
-6.79241e-75
-4.29769e-74
-2.68731e-73
-1.60666e-72
-4.30827e-72
-3.07813e-72
1.79001e-71
1.7599e-70
1.17899e-69
7.18206e-69
4.21812e-68
2.4299e-67
1.38074e-66
7.7544e-66
4.30731e-65
2.36707e-64
1.28712e-63
6.92579e-63
3.68794e-62
1.9435e-61
1.01366e-60
5.23267e-60
2.67362e-59
1.3522e-58
6.76953e-58
3.35486e-57
1.64591e-56
7.99404e-56
3.84391e-55
1.82997e-54
8.62561e-54
4.02559e-53
1.86027e-52
8.51223e-52
3.85696e-51
1.7306e-50
7.6897e-50
3.38374e-49
1.47459e-48
6.3642e-48
2.72037e-47
1.15169e-46
4.82918e-46
2.00566e-45
8.2508e-45
3.36201e-44
1.35699e-43
5.42551e-43
2.1488e-42
8.43055e-42
3.27662e-41
1.26158e-40
4.81207e-40
1.81838e-39
6.80736e-39
2.52478e-38
9.27736e-38
3.37745e-37
1.21821e-36
4.35342e-36
1.54142e-35
5.40749e-35
1.87959e-34
6.4733e-34
2.20897e-33
7.46892e-33
2.50227e-32
8.3066e-32
2.73229e-31
8.90532e-31
2.87603e-30
9.20365e-30
2.91845e-29
9.17004e-29
2.85509e-28
8.80841e-28
2.69281e-27
8.15728e-27
2.44859e-26
7.28315e-26
2.14661e-25
6.26925e-25
1.8143e-24
5.20269e-24
1.47834e-23
4.1624e-23
1.16128e-22
3.2103e-22
8.79369e-22
2.38676e-21
6.41882e-21
1.71043e-20
4.51601e-20
1.1814e-19
3.06219e-19
7.86408e-19
2.00098e-18
5.04436e-18
1.2599e-17
3.11759e-17
7.6428e-17
1.85621e-16
4.46613e-16
1.06453e-15
2.51361e-15
5.8795e-15
1.36231e-14
3.12672e-14
7.10842e-14
1.60071e-13
3.57025e-13
7.88703e-13
1.72562e-12
3.7392e-12
8.02415e-12
1.70526e-11
3.5887e-11
7.47861e-11
1.54321e-10
3.15303e-10
6.37845e-10
1.27751e-09
2.53309e-09
4.97232e-09
9.66192e-09
1.85841e-08
3.53807e-08
6.66677e-08
1.24326e-07
2.29445e-07
4.19021e-07
7.57191e-07
1.3538e-06
2.39473e-06
4.19057e-06
7.2539e-06
1.24199e-05
2.10316e-05
3.52207e-05
5.83251e-05
9.54998e-05
0.000154595
0.000247396
0.000391331
0.000611793
0.000945196
0.00144293
0.00217632
0.00324262
0.0047721
0.00693592
0.00995446
0.0141055
0.0197311
0.027242
0.0371182
0.0499027
0.0661883
0.0865944
0.111733
0.142163
0.178338
0.220541
0.268826
0.322954
0.382354
0.446094
0.512887
0.581139
0.649023
0.714597
0.775949
0.831352
0.879415
0.919211
0.950344
0.97297
0.987749
0.995857
0.99913
0.999913
0.999997
1
1
1
1
1
1
1
1
1
1
1
1
1
1
1
1
1
1
1
1
1
1
1
1
1
1
1
1
1
1
1
1
1
1
1
1
1
1
1
1
1
1
1
1
1
1
1
1
1
0.999999
0.999999
0.999998
0.999996
0.999993
0.999988
0.999979
0.999965
0.999942
0.999904
0.999845
0.999752
0.999608
0.999388
0.999054
0.998556
0.997822
0.996755
0.995224
0.993059
0.990038
0.985884
0.980256
0.97274
0.962859
0.950069
0.933776
0.913362
0.888215
0.857775
0.82159
0.779377
0.731082
0.676945
0.617539
0.553795
0.486999
0.418748
0.350869
0.285302
0.22396
0.168569
0.120519
0.0807377
0.0496174
0.027004
0.0122356
0.0041356
0.000867472
8.6415e-05
2.9656e-06
2.54688e-08
4.15186e-11
1.03049e-14
8.82659e-19
7.51792e-23
6.39956e-27
5.46524e-31
4.69167e-35
4.04924e-39
3.50973e-43
3.05012e-47
2.65351e-51
2.30819e-55
2.00619e-59
1.74187e-63
1.5109e-67
1.30958e-71
1.13459e-75
9.82811e-80
8.51357e-84
7.37587e-88
6.39134e-92
5.53913e-96
4.80114e-100
4.16177e-104
3.60763e-108
3.12726e-112
2.71077e-116
2.34968e-120
2.03662e-124
1.76523e-128
1.52999e-132
1.32608e-136
1.14935e-140
9.96169e-145
8.63408e-149
7.48342e-153
6.48612e-157
5.62172e-161
4.87251e-165
4.22314e-169
3.66029e-173
3.17245e-177
2.74962e-181
2.38314e-185
2.0655e-189
1.79019e-193
1.55157e-197
1.34476e-201
1.16551e-205
1.01015e-209
8.75495e-214
7.58789e-218
6.57639e-222
5.69971e-226
4.93989e-230
4.28134e-234
3.71058e-238
3.2159e-242
2.78716e-246
2.41558e-250
2.09353e-254
1.81441e-258
1.5725e-262
1.36284e-266
1.18113e-270
1.02364e-274
8.87153e-279
7.68861e-283
6.6634e-287
5.77488e-291
5.00483e-295
4.33744e-299
3.75904e-303
3.25777e-307
2.82333e-311
2.44682e-315
2.12063e-319
9.88131e-324
0
0
0
0
0
0
0
0
0
0
0
0
0
0
0
0
0
0
0
0
0
0
0
0
0
0
0
0
0
0
0
0
0
0
0
0
0
0
0
0
0
0
0
0
0
0
0
0
0
0
0
0
0
0
0
0
0
0
0
0
0
0
0
0
0
0
0
0
0
0
0
0
0
0
0
0
)
;

boundaryField
{
    sides
    {
        type            zeroGradient;
    }
    empty
    {
        type            empty;
    }
}


// ************************************************************************* //
