/*--------------------------------*- C++ -*----------------------------------*\
| =========                 |                                                 |
| \\      /  F ield         | OpenFOAM: The Open Source CFD Toolbox           |
|  \\    /   O peration     | Version:  2312                                  |
|   \\  /    A nd           | Website:  www.openfoam.com                      |
|    \\/     M anipulation  |                                                 |
\*---------------------------------------------------------------------------*/
FoamFile
{
    version     2.0;
    format      ascii;
    arch        "LSB;label=32;scalar=64";
    class       volScalarField;
    location    "3.4";
    object      T;
}
// * * * * * * * * * * * * * * * * * * * * * * * * * * * * * * * * * * * * * //

dimensions      [0 0 0 1 0 0 0];

internalField   nonuniform List<scalar> 
1000
(
5.15809e-08
5.17126e-08
5.20753e-08
5.26704e-08
5.35002e-08
5.45679e-08
5.58777e-08
5.74347e-08
5.9245e-08
6.13154e-08
6.36541e-08
6.62701e-08
6.91734e-08
7.23752e-08
7.58878e-08
7.97247e-08
8.39004e-08
8.84308e-08
9.33333e-08
9.86262e-08
1.0433e-07
1.10465e-07
1.17055e-07
1.24124e-07
1.317e-07
1.39809e-07
1.48482e-07
1.5775e-07
1.67648e-07
1.78212e-07
1.8948e-07
2.01492e-07
2.14293e-07
2.27927e-07
2.42444e-07
2.57894e-07
2.74334e-07
2.9182e-07
3.10414e-07
3.3018e-07
3.51188e-07
3.73509e-07
3.97221e-07
4.22405e-07
4.49145e-07
4.77534e-07
5.07666e-07
5.39643e-07
5.7357e-07
6.09562e-07
6.47737e-07
6.88219e-07
7.31142e-07
7.76646e-07
8.24876e-07
8.75989e-07
9.30149e-07
9.87527e-07
1.04831e-06
1.11268e-06
1.18084e-06
1.25301e-06
1.32942e-06
1.41029e-06
1.49587e-06
1.58643e-06
1.68224e-06
1.78359e-06
1.89078e-06
2.00414e-06
2.12401e-06
2.25072e-06
2.38467e-06
2.52623e-06
2.67583e-06
2.83389e-06
3.00087e-06
3.17724e-06
3.36351e-06
3.5602e-06
3.76786e-06
3.98709e-06
4.21847e-06
4.46266e-06
4.72033e-06
4.99217e-06
5.27894e-06
5.58139e-06
5.90034e-06
6.23665e-06
6.59121e-06
6.96495e-06
7.35885e-06
7.77393e-06
8.21129e-06
8.67203e-06
9.15735e-06
9.66847e-06
1.02067e-05
1.07734e-05
1.13699e-05
1.19978e-05
1.26586e-05
1.3354e-05
1.40855e-05
1.48551e-05
1.56645e-05
1.65157e-05
1.74107e-05
1.83517e-05
1.93408e-05
2.03804e-05
2.14728e-05
2.26207e-05
2.38266e-05
2.50932e-05
2.64236e-05
2.78205e-05
2.92872e-05
3.0827e-05
3.24431e-05
3.41392e-05
3.5919e-05
3.77863e-05
3.97451e-05
4.17996e-05
4.39542e-05
4.62134e-05
4.8582e-05
5.10648e-05
5.36671e-05
5.6394e-05
5.92513e-05
6.22447e-05
6.53802e-05
6.8664e-05
7.21028e-05
7.57032e-05
7.94723e-05
8.34175e-05
8.75463e-05
9.18667e-05
9.63869e-05
0.000101115
0.000106061
0.000111233
0.000116641
0.000122295
0.000128206
0.000134383
0.000140838
0.000147583
0.000154629
0.00016199
0.000169677
0.000177704
0.000186085
0.000194834
0.000203966
0.000213497
0.000223442
0.000233818
0.000244641
0.00025593
0.000267703
0.000279979
0.000292777
0.000306117
0.000320021
0.00033451
0.000349606
0.000365333
0.000381715
0.000398776
0.000416542
0.000435039
0.000454294
0.000474337
0.000495194
0.000516898
0.000539478
0.000562966
0.000587396
0.000612801
0.000639216
0.000666678
0.000695224
0.000724891
0.00075572
0.000787752
0.000821027
0.00085559
0.000891485
0.000928758
0.000967455
0.00100763
0.00104932
0.00109259
0.00113748
0.00118406
0.00123237
0.00128248
0.00133445
0.00138832
0.00144417
0.00150207
0.00156206
0.00162423
0.00168865
0.00175537
0.00182448
0.00189605
0.00197016
0.00204688
0.0021263
0.00220849
0.00229355
0.00238155
0.0024726
0.00256677
0.00266416
0.00276486
0.00286898
0.00297661
0.00308786
0.00320282
0.00332161
0.00344433
0.00357109
0.00370202
0.00383721
0.0039768
0.0041209
0.00426964
0.00442315
0.00458154
0.00474495
0.00491353
0.00508739
0.00526669
0.00545156
0.00564214
0.0058386
0.00604106
0.00624969
0.00646465
0.00668609
0.00691416
0.00714904
0.00739089
0.00763988
0.00789618
0.00815997
0.00843141
0.0087107
0.00899802
0.00929354
0.00959747
0.00990998
0.0102313
0.0105616
0.010901
0.0112498
0.0116083
0.0119765
0.0123547
0.0127431
0.0131419
0.0135514
0.0139717
0.0144032
0.0148459
0.0153002
0.0157662
0.0162442
0.0167344
0.0172371
0.0177525
0.0182808
0.0188223
0.0193772
0.0199458
0.0205283
0.0211249
0.0217359
0.0223615
0.0230021
0.0236578
0.0243289
0.0250157
0.0257184
0.0264372
0.0271725
0.0279244
0.0286933
0.0294794
0.0302829
0.0311041
0.0319433
0.0328007
0.0336766
0.0345712
0.0354848
0.0364176
0.0373699
0.038342
0.039334
0.0403463
0.0413791
0.0424326
0.0435071
0.0446028
0.04572
0.0468588
0.0480196
0.0492025
0.0504077
0.0516356
0.0528863
0.05416
0.0554569
0.0567773
0.0581214
0.0594893
0.0608812
0.0622974
0.0637379
0.0652031
0.066693
0.0682078
0.0697477
0.0713128
0.0729033
0.0745193
0.076161
0.0778285
0.0795218
0.0812411
0.0829865
0.0847581
0.086556
0.0883803
0.0902309
0.092108
0.0940117
0.0959419
0.0978987
0.0998821
0.101892
0.103929
0.105992
0.108082
0.110198
0.112341
0.114511
0.116706
0.118928
0.121177
0.123451
0.125751
0.128078
0.13043
0.132807
0.13521
0.137638
0.140091
0.142569
0.145072
0.147599
0.15015
0.152725
0.155324
0.157946
0.160591
0.163259
0.165949
0.168661
0.171394
0.174149
0.176925
0.179722
0.182538
0.185375
0.18823
0.191104
0.193997
0.196907
0.199835
0.202779
0.20574
0.208717
0.211708
0.214714
0.217735
0.220768
0.223815
0.226874
0.229944
0.233025
0.236116
0.239217
0.242327
0.245445
0.24857
0.251702
0.25484
0.257984
0.261132
0.264283
0.267438
0.270594
0.273752
0.276911
0.280069
0.283226
0.286381
0.289534
0.292682
0.295827
0.298965
0.302098
0.305223
0.308341
0.311449
0.314548
0.317636
0.320712
0.323776
0.326826
0.329862
0.332882
0.335886
0.338874
0.341842
0.344792
0.347722
0.350631
0.353519
0.356383
0.359224
0.36204
0.364831
0.367595
0.370331
0.37304
0.375719
0.378368
0.380986
0.383573
0.386126
0.388646
0.391131
0.393581
0.395994
0.398371
0.400709
0.403009
0.405269
0.407489
0.409667
0.411804
0.413898
0.415948
0.417954
0.419915
0.42183
0.423699
0.425521
0.427295
0.429021
0.430697
0.432324
0.4339
0.435426
0.4369
0.438322
0.439692
0.441008
0.442271
0.44348
0.444635
0.445734
0.446778
0.447766
0.448698
0.449574
0.450393
0.451154
0.451858
0.452505
0.453093
0.453624
0.454096
0.454509
0.454863
0.455159
0.455396
0.455573
0.455692
0.455751
0.455751
0.455692
0.455573
0.455396
0.455159
0.454863
0.454509
0.454096
0.453624
0.453093
0.452505
0.451858
0.451154
0.450393
0.449574
0.448698
0.447766
0.446778
0.445734
0.444635
0.44348
0.442271
0.441008
0.439692
0.438322
0.4369
0.435426
0.4339
0.432324
0.430697
0.429021
0.427295
0.425521
0.423699
0.42183
0.419915
0.417954
0.415948
0.413898
0.411804
0.409667
0.407489
0.405269
0.403009
0.400709
0.398371
0.395994
0.393581
0.391131
0.388646
0.386126
0.383573
0.380986
0.378368
0.375719
0.37304
0.370331
0.367595
0.364831
0.36204
0.359224
0.356383
0.353519
0.350631
0.347722
0.344792
0.341842
0.338874
0.335886
0.332882
0.329862
0.326826
0.323776
0.320712
0.317636
0.314548
0.311449
0.308341
0.305223
0.302098
0.298965
0.295827
0.292682
0.289534
0.286381
0.283226
0.280069
0.276911
0.273752
0.270594
0.267438
0.264283
0.261132
0.257984
0.25484
0.251702
0.24857
0.245445
0.242327
0.239217
0.236116
0.233025
0.229944
0.226874
0.223815
0.220768
0.217735
0.214714
0.211708
0.208717
0.20574
0.202779
0.199835
0.196907
0.193997
0.191104
0.18823
0.185375
0.182538
0.179722
0.176925
0.174149
0.171394
0.168661
0.165949
0.163259
0.160591
0.157946
0.155324
0.152725
0.15015
0.147599
0.145072
0.142569
0.140091
0.137638
0.13521
0.132807
0.13043
0.128078
0.125751
0.123451
0.121177
0.118928
0.116706
0.114511
0.112341
0.110198
0.108082
0.105992
0.103929
0.101892
0.0998821
0.0978987
0.0959419
0.0940117
0.092108
0.0902309
0.0883803
0.086556
0.0847581
0.0829865
0.0812411
0.0795218
0.0778285
0.076161
0.0745193
0.0729033
0.0713128
0.0697477
0.0682078
0.066693
0.0652031
0.0637379
0.0622974
0.0608812
0.0594893
0.0581214
0.0567773
0.0554569
0.05416
0.0528863
0.0516356
0.0504077
0.0492025
0.0480196
0.0468588
0.04572
0.0446028
0.0435071
0.0424326
0.0413791
0.0403463
0.039334
0.038342
0.0373699
0.0364176
0.0354848
0.0345712
0.0336766
0.0328007
0.0319433
0.0311041
0.0302829
0.0294794
0.0286933
0.0279244
0.0271725
0.0264372
0.0257184
0.0250157
0.0243289
0.0236578
0.0230021
0.0223615
0.0217359
0.0211249
0.0205283
0.0199458
0.0193772
0.0188223
0.0182808
0.0177525
0.0172371
0.0167344
0.0162442
0.0157662
0.0153002
0.0148459
0.0144032
0.0139717
0.0135514
0.0131419
0.0127431
0.0123547
0.0119765
0.0116083
0.0112498
0.010901
0.0105616
0.0102313
0.00990998
0.00959747
0.00929354
0.00899802
0.0087107
0.00843141
0.00815997
0.00789618
0.00763988
0.00739089
0.00714904
0.00691416
0.00668609
0.00646465
0.00624969
0.00604106
0.0058386
0.00564214
0.00545156
0.00526669
0.00508739
0.00491353
0.00474495
0.00458154
0.00442315
0.00426964
0.0041209
0.0039768
0.00383721
0.00370202
0.00357109
0.00344433
0.00332161
0.00320282
0.00308786
0.00297661
0.00286898
0.00276486
0.00266416
0.00256677
0.0024726
0.00238155
0.00229355
0.00220849
0.0021263
0.00204688
0.00197016
0.00189605
0.00182448
0.00175537
0.00168865
0.00162423
0.00156206
0.00150207
0.00144417
0.00138832
0.00133445
0.00128248
0.00123237
0.00118406
0.00113748
0.00109259
0.00104932
0.00100763
0.000967455
0.000928758
0.000891485
0.00085559
0.000821027
0.000787752
0.00075572
0.000724891
0.000695224
0.000666678
0.000639216
0.000612801
0.000587396
0.000562966
0.000539478
0.000516898
0.000495194
0.000474337
0.000454294
0.000435039
0.000416542
0.000398776
0.000381715
0.000365333
0.000349606
0.00033451
0.000320021
0.000306117
0.000292777
0.000279979
0.000267703
0.00025593
0.000244641
0.000233818
0.000223442
0.000213497
0.000203966
0.000194834
0.000186085
0.000177704
0.000169677
0.00016199
0.000154629
0.000147583
0.000140838
0.000134383
0.000128206
0.000122295
0.000116641
0.000111233
0.000106061
0.000101115
9.63869e-05
9.18667e-05
8.75463e-05
8.34175e-05
7.94723e-05
7.57032e-05
7.21028e-05
6.8664e-05
6.53802e-05
6.22447e-05
5.92513e-05
5.6394e-05
5.36671e-05
5.10648e-05
4.8582e-05
4.62134e-05
4.39542e-05
4.17996e-05
3.97451e-05
3.77863e-05
3.5919e-05
3.41392e-05
3.24431e-05
3.0827e-05
2.92872e-05
2.78205e-05
2.64236e-05
2.50932e-05
2.38266e-05
2.26207e-05
2.14728e-05
2.03804e-05
1.93408e-05
1.83517e-05
1.74107e-05
1.65157e-05
1.56645e-05
1.48551e-05
1.40855e-05
1.3354e-05
1.26586e-05
1.19978e-05
1.13699e-05
1.07734e-05
1.02067e-05
9.66847e-06
9.15735e-06
8.67203e-06
8.21129e-06
7.77393e-06
7.35885e-06
6.96495e-06
6.59121e-06
6.23665e-06
5.90034e-06
5.58139e-06
5.27894e-06
4.99217e-06
4.72033e-06
4.46266e-06
4.21847e-06
3.98709e-06
3.76786e-06
3.5602e-06
3.36351e-06
3.17724e-06
3.00087e-06
2.83389e-06
2.67583e-06
2.52623e-06
2.38467e-06
2.25072e-06
2.12401e-06
2.00414e-06
1.89078e-06
1.78359e-06
1.68224e-06
1.58643e-06
1.49587e-06
1.41029e-06
1.32942e-06
1.25301e-06
1.18084e-06
1.11268e-06
1.04831e-06
9.87527e-07
9.30149e-07
8.75989e-07
8.24876e-07
7.76646e-07
7.31142e-07
6.88219e-07
6.47737e-07
6.09562e-07
5.7357e-07
5.39643e-07
5.07666e-07
4.77534e-07
4.49145e-07
4.22405e-07
3.97221e-07
3.73509e-07
3.51188e-07
3.3018e-07
3.10414e-07
2.9182e-07
2.74334e-07
2.57894e-07
2.42444e-07
2.27927e-07
2.14293e-07
2.01492e-07
1.8948e-07
1.78212e-07
1.67648e-07
1.5775e-07
1.48482e-07
1.39809e-07
1.317e-07
1.24124e-07
1.17055e-07
1.10465e-07
1.0433e-07
9.86262e-08
9.33333e-08
8.84308e-08
8.39004e-08
7.97247e-08
7.58878e-08
7.23752e-08
6.91734e-08
6.62701e-08
6.36541e-08
6.13154e-08
5.9245e-08
5.74347e-08
5.58777e-08
5.45679e-08
5.35002e-08
5.26704e-08
5.20753e-08
5.17126e-08
5.15809e-08
)
;

boundaryField
{
    sides
    {
        type            zeroGradient;
    }
    empty
    {
        type            empty;
    }
}


// ************************************************************************* //
