/*--------------------------------*- C++ -*----------------------------------*\
| =========                 |                                                 |
| \\      /  F ield         | OpenFOAM: The Open Source CFD Toolbox           |
|  \\    /   O peration     | Version:  2312                                  |
|   \\  /    A nd           | Website:  www.openfoam.com                      |
|    \\/     M anipulation  |                                                 |
\*---------------------------------------------------------------------------*/
FoamFile
{
    version     2.0;
    format      ascii;
    arch        "LSB;label=32;scalar=64";
    class       volScalarField;
    location    "2.2";
    object      T;
}
// * * * * * * * * * * * * * * * * * * * * * * * * * * * * * * * * * * * * * //

dimensions      [0 0 0 1 0 0 0];

internalField   nonuniform List<scalar> 
1000
(
0
0
0
0
0
0
0
0
0
0
0
0
0
0
0
0
0
0
0
0
0
0
0
0
0
0
0
0
0
0
0
0
0
0
0
0
0
0
0
0
0
0
0
0
0
0
0
0
0
0
0
0
0
0
0
0
0
0
0
0
0
0
0
0
0
0
0
0
0
0
0
0
0
0
0
0
0
0
0
0
0
0
0
0
0
0
0
0
0
0
0
0
0
0
0
0
0
0
0
0
0
0
0
0
0
0
0
0
0
0
0
0
0
0
0
0
0
0
0
0
0
0
0
0
0
0
0
0
0
0
0
0
0
0
0
0
0
0
0
0
0
0
0
0
0
0
0
0
0
0
0
0
0
0
0
0
0
0
0
0
0
0
0
0
0
0
0
0
0
0
0
0
0
-4.94066e-324
2.96439e-323
-4.94066e-324
2.96439e-323
-4.94066e-324
2.96439e-323
-4.94066e-324
2.96439e-323
-4.94066e-324
2.96439e-323
-4.94066e-324
2.96439e-323
-4.94066e-324
2.96439e-323
-4.94066e-324
2.96439e-323
-4.94066e-324
2.96439e-323
-4.94066e-324
2.96439e-323
-4.94066e-324
2.96439e-323
-4.94066e-324
2.96439e-323
-4.94066e-324
2.96439e-323
-4.94066e-324
2.96439e-323
-4.94066e-324
2.96439e-323
-4.94066e-324
2.96439e-323
-4.94066e-324
2.96439e-323
-4.94066e-324
2.96439e-323
-4.94066e-324
2.96439e-323
-4.94066e-324
2.96439e-323
-4.94066e-324
2.96439e-323
-4.94066e-324
2.96439e-323
-4.94066e-324
2.96439e-323
-4.94066e-324
2.96439e-323
-4.94066e-324
2.96439e-323
-4.94066e-324
2.96439e-323
-4.94066e-324
2.96439e-323
-4.94066e-324
2.96439e-323
-4.94066e-324
2.96439e-323
-4.94066e-324
2.96439e-323
-4.94066e-324
2.96439e-323
-1.5316e-322
2.17389e-321
-2.78159e-320
3.58445e-319
-4.60779e-318
5.93276e-317
-7.62604e-316
9.81943e-315
-1.26218e-313
1.62518e-312
-2.08907e-311
2.68979e-310
-3.45764e-309
4.45184e-308
-5.7227e-307
7.36823e-306
-9.47161e-305
1.2195e-303
-1.56766e-302
2.01833e-301
-2.59476e-300
3.34026e-299
-4.29507e-298
5.5276e-297
-7.11e-296
9.14701e-295
-1.17698e-293
1.51368e-292
-1.94826e-291
2.50502e-290
-3.22483e-289
4.14578e-288
-5.33762e-287
6.86147e-286
-8.83436e-285
1.13563e-283
-1.46217e-282
1.87958e-281
-2.42003e-280
3.11087e-279
-4.00539e-278
5.14878e-277
-6.62924e-276
8.52185e-275
-1.09717e-273
1.41052e-272
-1.81577e-271
2.33481e-270
-3.00481e-269
3.86501e-268
-4.97234e-267
6.39807e-266
-8.2284e-265
1.05908e-263
-1.36173e-262
1.75302e-261
-2.25365e-260
2.90154e-259
-3.72991e-258
4.80238e-257
-6.17332e-256
7.94838e-255
-1.02174e-253
1.31554e-252
-1.69107e-251
2.17734e-250
-2.79888e-249
3.60368e-248
-4.63247e-247
5.96432e-246
-7.66734e-245
9.87118e-244
-1.26908e-242
1.63366e-241
-2.10061e-240
2.70363e-239
-3.477e-238
4.47444e-237
-5.75509e-236
7.40529e-235
-9.52554e-234
1.2256e-232
-1.57663e-231
2.02839e-230
-2.60961e-229
3.35699e-228
-4.31935e-227
5.55595e-226
-7.14904e-225
9.19561e-224
-1.18322e-222
1.52199e-221
-1.95829e-220
2.51908e-219
-3.24112e-218
4.16933e-217
-5.36435e-216
6.90065e-215
-8.87846e-214
1.14213e-212
-1.46946e-211
1.89034e-210
-2.4321e-209
3.12867e-208
-4.02537e-207
5.17823e-206
-6.66231e-205
8.57065e-204
-1.10263e-202
1.41859e-201
-1.82487e-200
2.34801e-199
-3.02022e-198
3.88623e-197
-4.99875e-196
6.43199e-195
-8.27357e-194
1.06453e-192
-1.36938e-191
1.76188e-190
-2.26646e-189
2.91608e-188
-3.7512e-187
4.82636e-186
-6.20863e-185
7.98801e-184
-1.02759e-182
1.32209e-181
-1.70075e-180
2.1882e-179
-2.8149e-178
3.62163e-177
-4.65902e-176
5.99392e-175
-7.71148e-174
9.92001e-173
-1.27638e-171
1.64179e-170
-2.11258e-169
2.71729e-168
-3.49652e-167
4.4974e-166
-5.78702e-165
7.44367e-164
-9.57799e-163
1.232e-161
-1.58524e-160
2.03909e-159
-2.62371e-158
3.37489e-157
-4.34247e-156
5.58577e-155
-7.18721e-154
9.24495e-153
-1.18955e-151
1.53013e-150
-1.9688e-149
2.53256e-148
-3.25844e-147
4.1918e-146
-5.39274e-145
6.93819e-144
-8.92507e-143
1.14838e-141
-1.47715e-140
1.90069e-139
-2.44481e-138
3.14581e-137
-4.04641e-136
5.20659e-135
-6.69724e-134
8.61731e-133
-1.10847e-131
1.42623e-130
-1.83464e-129
2.36052e-128
-3.03653e-127
3.90684e-126
-5.02577e-125
6.46615e-124
-8.31812e-123
1.07021e-121
-1.37672e-120
1.77132e-119
-2.27857e-118
2.93174e-117
1.07107e-117
-1.35165e-115
1.71285e-114
2.89404e-114
-9.41719e-113
1.50831e-112
4.1548e-111
-3.68951e-110
-1.50312e-109
3.04226e-108
4.26029e-108
-1.62652e-106
-1.27314e-106
7.95333e-105
3.37798e-105
-4.03692e-103
-1.569e-103
2.06755e-101
1.29822e-101
-1.04753e-99
-9.99245e-100
4.86003e-98
7.54544e-98
-1.75822e-96
-5.96708e-96
4.53825e-95
4.20647e-94
-6.53783e-94
-2.35001e-92
-1.28595e-92
1.02992e-90
2.44741e-90
-1.89213e-89
-2.07978e-88
4.18782e-89
1.05961e-86
1.95308e-86
-1.64198e-85
-1.98033e-84
-7.06068e-85
6.87123e-83
2.70372e-82
-4.55064e-82
-1.80566e-80
-3.24617e-80
1.78266e-79
3.52598e-78
4.1072e-78
-4.28185e-77
-6.57171e-76
-7.17104e-76
7.35345e-75
1.12501e-73
1.33498e-73
-1.01911e-72
-1.82167e-71
-3.09526e-71
1.02751e-70
2.42231e-69
8.43975e-69
-2.43519e-69
-2.34109e-67
-1.9799e-66
-1.91797e-66
1.58221e-65
2.54475e-64
7.11767e-64
-2.50426e-64
-1.72788e-62
-2.1626e-61
-2.33443e-60
-2.3929e-59
-2.37101e-58
-2.31799e-57
-1.37094e-56
-1.40578e-56
5.72976e-56
8.71097e-55
8.32241e-54
7.23148e-53
6.03793e-52
4.90424e-51
3.88753e-50
3.01057e-49
2.27885e-48
1.68665e-47
1.22098e-46
8.64742e-46
5.99343e-45
4.06617e-44
2.70099e-43
1.75707e-42
1.11965e-41
6.99036e-41
4.27688e-40
2.5648e-39
1.50786e-38
8.69228e-38
4.91412e-37
2.72503e-36
1.48246e-35
7.91316e-35
4.14511e-34
2.13111e-33
1.07552e-32
5.32889e-32
2.59245e-31
1.2385e-30
5.81094e-30
2.67798e-29
1.21235e-28
5.39204e-28
2.35627e-27
1.01177e-26
4.26941e-26
1.77059e-25
7.21712e-25
2.89163e-24
1.1389e-23
4.40979e-23
1.6787e-22
6.28308e-22
2.31229e-21
8.36771e-21
2.97772e-20
1.04206e-19
3.58635e-19
1.21389e-18
4.04094e-18
1.32306e-17
4.26066e-17
1.34954e-16
4.20449e-16
1.28844e-15
3.88365e-15
1.15145e-14
3.35799e-14
9.6325e-14
2.71782e-13
7.54259e-13
2.05887e-12
5.5276e-12
1.4596e-11
3.79055e-11
9.68124e-11
2.43164e-10
6.00605e-10
1.45873e-09
3.48364e-09
8.17969e-09
1.88823e-08
4.28505e-08
9.55878e-08
2.09584e-07
4.51626e-07
9.56362e-07
1.98994e-06
4.06799e-06
8.16937e-06
1.61141e-05
3.12155e-05
5.93764e-05
0.000110883
0.00020326
0.000365671
0.000645501
0.00111784
0.00189864
0.00316218
0.00516301
0.00826187
0.0129537
0.0198941
0.0299186
0.0440461
0.0634576
0.0894385
0.123278
0.166121
0.218774
0.281497
0.353785
0.434215
0.520378
0.608957
0.69597
0.777179
0.848602
0.90706
0.950625
0.978955
0.993699
0.998931
0.999923
0.999998
1
1
1
1
1
1
1
1
1
1
1
1
1
1
1
1
1
1
1
1
1
1
1
1
1
1
1
1
1
1
1
1
1
1
1
1
1
1
1
1
1
1
1
1
1
1
1
1
1
1
1
1
1
1
1
1
1
1
1
1
0.999999
0.999998
0.999996
0.999992
0.999984
0.999969
0.999941
0.999889
0.999796
0.999634
0.999354
0.998881
0.998099
0.996834
0.994831
0.991729
0.987034
0.980088
0.970056
0.955919
0.936496
0.910502
0.876647
0.833788
0.781118
0.71838
0.646079
0.565641
0.479476
0.3909
0.303897
0.222705
0.151303
0.0928684
0.0493274
0.0210184
0.00628941
0.0010665
7.64719e-05
1.67025e-06
8.16464e-09
6.90744e-12
8.47292e-16
7.18815e-20
6.20988e-24
5.41822e-28
4.74034e-32
4.13998e-36
3.60217e-40
3.1217e-44
2.69633e-48
2.32366e-52
2.00012e-56
1.7211e-60
1.48141e-64
1.27583e-68
1.09948e-72
9.48005e-77
8.17704e-81
7.05448e-85
6.0863e-89
5.25071e-93
4.52937e-97
3.90667e-101
3.36924e-105
2.90554e-109
2.50555e-113
2.16058e-117
1.86311e-121
1.60661e-125
1.38544e-129
1.19473e-133
1.03027e-137
8.88446e-142
7.66142e-146
6.60668e-150
5.69708e-154
4.91267e-158
4.23621e-162
3.65286e-166
3.14982e-170
2.71603e-174
2.34196e-178
2.0194e-182
1.74125e-186
1.5014e-190
1.29458e-194
1.11624e-198
9.62468e-203
8.29869e-207
7.15534e-211
6.16947e-215
5.3194e-219
4.58643e-223
3.95443e-227
3.4095e-231
2.93965e-235
2.53453e-239
2.18523e-243
1.88406e-247
1.62439e-251
1.4005e-255
1.20747e-259
1.04104e-263
8.97542e-268
7.73823e-272
6.67154e-276
5.75188e-280
4.95897e-284
4.27535e-288
3.68595e-292
3.1778e-296
2.73968e-300
2.36196e-304
2.03631e-308
1.75555e-312
1.51349e-316
1.30285e-320
0
0
0
0
0
0
0
0
0
0
0
0
0
0
0
0
0
0
0
0
0
0
0
0
0
0
0
0
0
0
0
0
0
0
0
0
0
0
0
0
0
0
0
0
0
0
0
0
0
0
0
0
0
0
0
0
0
0
0
0
0
0
0
0
0
0
0
0
0
0
0
0
0
0
0
0
0
0
0
0
0
0
0
0
0
0
0
0
0
0
0
0
0
0
0
0
0
0
0
0
0
0
0
0
0
0
0
0
0
0
0
0
0
0
0
0
0
0
0
0
0
0
0
0
0
0
0
0
0
0
0
0
0
0
0
0
0
0
0
0
0
0
0
0
0
0
0
0
0
0
0
0
0
0
0
0
0
0
0
0
0
0
0
0
0
0
0
0
0
0
0
0
0
0
0
0
0
0
0
0
0
0
0
0
0
0
0
0
0
0
0
0
0
0
0
0
0
0
0
0
0
0
0
0
0
0
)
;

boundaryField
{
    sides
    {
        type            zeroGradient;
    }
    empty
    {
        type            empty;
    }
}


// ************************************************************************* //
