/*--------------------------------*- C++ -*----------------------------------*\
| =========                 |                                                 |
| \\      /  F ield         | OpenFOAM: The Open Source CFD Toolbox           |
|  \\    /   O peration     | Version:  2312                                  |
|   \\  /    A nd           | Website:  www.openfoam.com                      |
|    \\/     M anipulation  |                                                 |
\*---------------------------------------------------------------------------*/
FoamFile
{
    version     2.0;
    format      ascii;
    arch        "LSB;label=32;scalar=64";
    class       volScalarField;
    location    "0.9";
    object      T;
}
// * * * * * * * * * * * * * * * * * * * * * * * * * * * * * * * * * * * * * //

dimensions      [0 0 0 1 0 0 0];

internalField   nonuniform List<scalar> 
1000
(
0
0
0
0
0
0
0
0
0
0
0
0
0
0
0
0
0
0
0
0
0
0
0
0
0
0
0
0
0
0
0
0
0
0
0
0
0
0
0
0
0
0
0
0
0
0
0
0
0
0
0
0
0
0
0
0
0
0
0
0
0
0
0
0
0
0
0
0
0
0
0
0
0
0
0
0
0
0
0
0
0
0
0
0
0
0
0
0
0
0
0
0
0
0
0
0
0
0
0
0
0
0
0
0
0
0
0
0
0
0
0
0
0
0
0
0
0
0
0
0
0
0
0
0
0
0
0
0
0
0
0
0
0
0
0
0
0
0
0
0
0
0
0
0
0
0
0
0
0
0
0
0
0
0
0
0
0
0
0
0
0
0
0
0
0
0
0
0
0
0
0
0
0
0
0
0
0
0
0
0
0
0
0
0
0
0
0
0
0
0
0
0
0
0
0
0
0
0
0
0
0
0
0
0
0
0
0
0
0
0
0
0
0
0
0
0
0
0
0
0
0
0
0
0
0
0
0
0
0
0
0
0
0
0
0
0
0
0
0
0
0
0
0
0
0
0
0
0
0
0
0
0
0
0
0
0
0
0
0
0
0
0
0
0
0
0
0
0
0
0
0
0
0
0
0
0
0
0
0
0
0
0
0
0
0
0
0
0
0
0
0
0
0
0
0
0
0
0
0
0
0
0
0
0
0
0
0
0
0
0
0
0
0
0
0
0
0
0
0
0
0
0
0
0
0
0
0
0
0
0
0
0
0
0
0
0
0
0
0
0
0
0
0
0
0
0
0
0
0
0
0
0
0
0
0
0
0
0
0
0
0
0
0
0
0
0
0
0
0
0
0
0
0
0
0
0
0
0
0
0
0
0
0
0
0
0
0
0
0
0
0
0
0
0
0
0
0
0
0
0
0
0
0
0
9.91333e-57
-6.65477e-41
3.99873e-33
-2.37385e-29
9.13998e-28
1.78629e-26
1.39969e-25
6.84345e-25
2.32403e-24
2.16157e-24
-4.59304e-23
-3.8581e-22
-1.51431e-21
-2.56228e-21
2.34011e-21
5.61515e-21
-1.41054e-19
-9.2496e-19
-2.51676e-18
4.5279e-19
2.80617e-17
9.75446e-17
-1.29309e-17
-8.51198e-16
-3.37377e-16
4.29175e-15
-1.28708e-15
-1.28798e-14
1.45702e-14
2.31296e-14
-5.82225e-14
-9.19357e-15
1.54264e-13
-9.97575e-14
-3.12566e-13
4.90518e-13
4.26614e-13
-1.4782e-12
-1.16075e-13
3.6587e-12
-1.68025e-12
-7.9156e-12
7.51951e-12
1.61401e-11
-2.46522e-11
-2.97835e-11
6.45986e-11
5.6076e-11
-1.59899e-10
-1.07352e-10
3.81684e-10
2.27786e-10
-8.89925e-10
-5.40565e-10
2.00803e-09
1.40836e-09
-4.29477e-09
-4.06047e-09
8.87139e-09
1.12856e-08
-1.55556e-08
-3.09723e-08
2.10967e-08
7.77992e-08
-8.38641e-09
-1.70459e-07
-8.15969e-08
3.22797e-07
3.74541e-07
-4.01093e-07
-1.1052e-06
-3.06365e-08
2.31768e-06
2.01823e-06
-2.85133e-06
-6.90279e-06
-1.28036e-06
1.31758e-05
1.63494e-05
-7.47387e-06
-4.18672e-05
-3.63132e-05
3.72787e-05
0.000121206
8.98932e-05
-0.000111562
-0.000336698
-0.000278126
0.000216815
0.000906423
0.000983354
-8.83126e-06
-0.00194799
-0.003325
-0.00235522
0.00179931
0.00795432
0.0118023
0.0088588
-0.00339458
-0.0237933
-0.0448234
-0.0525339
-0.0378473
0.00790794
0.089149
0.20249
0.337773
0.480944
0.617738
0.736879
0.831895
0.901326
0.947661
0.97566
0.990716
0.997633
0.999877
1
1
1
1
1
1
1
1
1
1
1
1
1
1
1
1
1
1
1
1
1
1
1
1
1
1
1
1
1
1
1
1
1
1
1
1
1
1
1
1
1
1
1
1
1
1
1
1
1
1
1
1
1
1
0.999998
0.999998
1
1.00001
1
0.999987
0.999984
1.00001
1.00004
1.00004
0.999962
0.999878
0.99991
1.00011
1.00034
1.00028
0.999785
0.999094
0.999015
1.00001
1.00195
1.00332
1.00235
0.998199
0.992048
0.988206
0.991157
1.00341
1.02381
1.04482
1.0525
1.03777
0.991966
0.910682
0.797316
0.662032
0.518881
0.38212
0.263018
0.168038
0.0986348
0.05232
0.024332
0.00928261
0.00236688
0.000123412
3.03752e-16
3.03477e-16
3.01552e-16
2.95563e-16
2.83087e-16
2.62696e-16
2.34884e-16
2.02026e-16
1.67486e-16
1.34469e-16
1.0522e-16
8.0794e-17
6.12617e-17
4.60956e-17
3.45253e-17
2.57745e-17
1.91766e-17
1.42059e-17
1.04646e-17
7.65595e-18
5.55728e-18
3.99951e-18
2.85265e-18
2.01601e-18
1.41162e-18
9.79361e-19
6.73314e-19
4.58782e-19
3.0987e-19
2.07497e-19
1.37776e-19
9.07258e-20
5.92584e-20
3.83963e-20
2.46832e-20
1.57447e-20
9.96621e-21
6.26078e-21
3.90357e-21
2.4158e-21
1.48406e-21
9.0502e-22
5.47896e-22
3.29299e-22
1.96495e-22
1.16411e-22
6.84746e-23
3.9992e-23
2.31917e-23
1.33543e-23
7.63566e-24
4.33531e-24
2.44429e-24
1.36853e-24
7.60913e-25
4.20152e-25
2.30399e-25
1.25479e-25
6.78715e-26
3.64623e-26
1.94561e-26
1.03118e-26
5.42871e-27
2.83894e-27
1.47479e-27
7.6108e-28
3.9019e-28
1.98739e-28
1.0057e-28
5.05644e-29
2.52601e-29
1.25387e-29
6.18463e-30
3.03137e-30
1.47653e-30
7.14736e-31
3.43845e-31
1.64404e-31
7.81289e-32
3.69044e-32
1.73273e-32
8.08694e-33
3.75196e-33
1.73049e-33
7.93478e-34
3.6172e-34
1.63945e-34
7.38807e-35
3.31044e-35
1.47496e-35
6.53481e-36
2.87911e-36
1.26146e-36
5.4966e-37
2.38198e-37
1.02664e-37
4.40106e-38
1.87657e-38
7.95903e-39
3.35782e-39
1.4092e-39
5.88328e-40
2.44352e-40
1.00966e-40
4.15062e-41
1.69764e-41
6.9085e-42
2.79734e-42
1.12705e-42
4.5185e-43
1.80264e-43
7.15657e-44
2.82744e-44
1.1117e-44
4.35014e-45
1.69415e-45
6.56673e-46
2.53341e-46
9.72828e-47
3.71837e-47
1.41471e-47
5.35792e-48
2.01998e-48
7.58116e-49
2.83252e-49
1.05359e-49
3.9016e-50
1.43846e-50
5.28021e-51
1.9298e-51
7.02251e-52
2.54451e-52
9.18034e-53
3.29812e-53
1.17989e-53
4.20328e-54
1.49116e-54
5.26812e-55
1.85351e-55
6.49462e-56
2.26642e-56
7.87712e-57
2.72674e-57
9.40109e-58
3.22837e-58
1.10425e-58
3.76218e-59
1.27677e-59
4.31611e-60
1.45342e-60
4.87547e-61
1.62922e-61
5.42362e-62
1.79868e-62
5.94267e-63
1.95607e-63
6.41458e-64
2.09577e-64
6.82212e-65
2.2126e-65
7.14998e-66
2.30214e-66
7.38572e-67
2.361e-67
7.52056e-68
2.38706e-68
7.54995e-69
2.37958e-69
7.47374e-70
2.3392e-70
7.2962e-71
2.26794e-71
7.02557e-72
2.16897e-72
6.67352e-73
2.04641e-73
6.25427e-74
1.90507e-74
5.7837e-75
1.75012e-75
5.27839e-76
1.58678e-76
4.75467e-77
1.4201e-77
4.22785e-78
1.25467e-78
3.71153e-79
1.09446e-79
3.21718e-80
9.42731e-81
2.75386e-81
8.01947e-82
2.32811e-82
6.7379e-83
1.94408e-83
5.59213e-84
1.60369e-84
4.58515e-85
1.30701e-85
3.71452e-86
1.05253e-86
2.97355e-87
8.37596e-88
2.35244e-88
6.58765e-89
1.83941e-89
5.12116e-90
1.42169e-90
3.93544e-91
1.08628e-91
2.98987e-92
8.20604e-93
2.2459e-93
6.12952e-94
1.66821e-94
4.52756e-95
1.2254e-95
3.30743e-96
8.90249e-97
2.38971e-97
6.39733e-98
1.70795e-98
4.54756e-99
1.20758e-99
3.19811e-100
8.44721e-101
2.22527e-101
5.84662e-102
1.53209e-102
4.00433e-103
1.04386e-103
2.71412e-104
7.03871e-105
1.8207e-105
4.69757e-106
1.20893e-106
3.10329e-107
7.94597e-108
2.02944e-108
5.17032e-109
1.31393e-109
3.3308e-110
8.42263e-111
2.12459e-111
5.34609e-112
1.34194e-112
3.36026e-113
8.3938e-114
2.09167e-114
5.19977e-115
1.28953e-115
3.19039e-116
7.87448e-117
1.93897e-117
4.76317e-118
1.16735e-118
2.85422e-119
6.96245e-120
1.69445e-120
4.11424e-121
9.96668e-122
2.40888e-122
5.8088e-123
1.39755e-123
3.3548e-124
8.03494e-125
1.92009e-125
4.57811e-126
1.08913e-126
2.5853e-127
6.12317e-128
1.44705e-128
3.41222e-129
8.02856e-130
1.88491e-130
4.4157e-131
1.03221e-131
2.40768e-132
5.60396e-133
1.30155e-133
3.01649e-134
6.9762e-135
1.60996e-135
3.70763e-136
8.52048e-137
1.95399e-137
4.47171e-138
1.02123e-138
2.3274e-139
5.29327e-140
1.20139e-140
2.72116e-141
6.15088e-142
1.38751e-142
3.12361e-143
7.01777e-144
1.5735e-144
3.521e-145
7.86315e-146
1.75252e-146
3.89822e-147
8.65392e-148
1.91736e-148
4.23977e-149
9.35689e-150
2.06098e-150
4.53079e-151
9.94107e-152
2.17698e-152
4.7582e-153
1.038e-153
2.26009e-154
4.91164e-155
1.06538e-155
2.30655e-156
4.9843e-157
1.07505e-157
2.31444e-158
4.97337e-159
1.06672e-159
2.28374e-160
4.88026e-161
1.04097e-161
2.21637e-162
4.71034e-163
9.99246e-164
2.11595e-164
4.47253e-165
9.43667e-166
1.98749e-166
4.17845e-167
8.76903e-168
1.83703e-168
3.84159e-169
8.01935e-170
1.6711e-170
3.47622e-171
7.21857e-172
1.49637e-172
3.09651e-173
6.39668e-174
1.31913e-174
2.71565e-175
5.58105e-176
1.14503e-176
2.34518e-177
4.79513e-178
9.78791e-179
1.99456e-179
4.05764e-180
8.24086e-181
1.67088e-181
3.38218e-182
6.83483e-183
1.37892e-183
2.77738e-184
5.58491e-185
1.12121e-185
2.24723e-186
4.49677e-187
8.98357e-188
1.79182e-188
3.56813e-189
7.09393e-190
1.40811e-190
2.79058e-191
5.52153e-192
1.09077e-192
2.1514e-193
4.23666e-194
8.32994e-195
1.63523e-195
3.20507e-196
6.27217e-197
1.22553e-197
2.39087e-198
4.65712e-199
9.05755e-200
)
;

boundaryField
{
    sides
    {
        type            zeroGradient;
    }
    empty
    {
        type            empty;
    }
}


// ************************************************************************* //
