/*--------------------------------*- C++ -*----------------------------------*\
| =========                 |                                                 |
| \\      /  F ield         | OpenFOAM: The Open Source CFD Toolbox           |
|  \\    /   O peration     | Version:  2312                                  |
|   \\  /    A nd           | Website:  www.openfoam.com                      |
|    \\/     M anipulation  |                                                 |
\*---------------------------------------------------------------------------*/
FoamFile
{
    version     2.0;
    format      ascii;
    arch        "LSB;label=32;scalar=64";
    class       volScalarField;
    location    "1.6";
    object      T;
}
// * * * * * * * * * * * * * * * * * * * * * * * * * * * * * * * * * * * * * //

dimensions      [0 0 0 1 0 0 0];

internalField   nonuniform List<scalar> 
1000
(
0
0
0
0
0
0
0
0
0
0
0
0
0
0
0
0
0
0
0
0
0
0
0
0
0
0
0
0
0
0
0
0
0
0
0
0
0
0
0
0
0
0
0
0
0
0
0
0
0
0
0
0
0
0
0
0
0
0
0
0
0
0
0
0
0
0
0
0
0
0
0
0
0
0
0
0
0
0
0
0
0
0
0
0
0
0
0
0
0
0
0
0
0
0
0
0
0
0
0
0
0
0
0
0
0
0
0
0
0
0
0
0
0
0
0
0
0
0
0
0
0
0
0
0
0
0
0
0
0
0
0
0
0
0
0
0
0
0
0
0
0
0
0
0
0
0
0
0
0
0
0
0
0
0
0
0
0
0
0
0
0
0
0
0
0
0
0
0
0
0
0
0
0
-4.94066e-324
2.96439e-323
-4.94066e-324
2.96439e-323
-4.94066e-324
2.96439e-323
-4.94066e-324
2.96439e-323
-4.94066e-324
2.96439e-323
-4.94066e-324
2.96439e-323
-4.94066e-324
2.96439e-323
-4.94066e-324
2.96439e-323
-4.94066e-324
2.96439e-323
-4.94066e-324
2.96439e-323
-4.94066e-324
2.96439e-323
-4.94066e-324
2.96439e-323
-4.94066e-324
2.96439e-323
-4.94066e-324
2.96439e-323
-4.94066e-324
2.96439e-323
-4.94066e-324
2.96439e-323
-4.94066e-324
2.96439e-323
-4.94066e-324
2.96439e-323
-4.94066e-324
2.96439e-323
-4.94066e-324
2.96439e-323
-4.94066e-324
2.96439e-323
-4.94066e-324
2.96439e-323
-4.94066e-324
7.41098e-323
-7.65802e-322
1.01135e-320
-1.29791e-319
1.66995e-318
-2.1484e-317
2.76392e-316
-3.5558e-315
4.57454e-314
-5.88518e-313
7.57129e-312
-9.74052e-311
1.25312e-309
-1.61215e-308
2.07403e-307
-2.66825e-306
3.43272e-305
-4.4162e-304
5.68147e-303
-7.30922e-302
9.40336e-301
-1.20974e-299
1.55634e-298
-2.00224e-297
2.57589e-296
-3.31389e-295
4.26335e-294
-5.4848e-293
7.05624e-292
-9.07786e-291
1.16787e-289
-1.50247e-288
1.93294e-287
-2.48673e-286
3.19919e-285
-4.11577e-284
5.29496e-283
-6.81198e-282
8.76365e-281
-1.12745e-279
1.45047e-278
-1.86603e-277
2.40065e-276
-3.08846e-275
3.97331e-274
-5.11168e-273
6.57619e-272
-8.46032e-271
1.08842e-269
-1.40026e-268
1.80144e-267
-2.31756e-266
2.98155e-265
-3.83578e-264
4.93474e-263
-6.34858e-262
8.16746e-261
-1.05075e-259
1.35179e-258
-1.73909e-257
2.23734e-256
-2.87835e-255
3.70301e-254
-4.76394e-253
6.12882e-252
-7.88475e-251
1.01438e-249
-1.305e-248
1.67889e-247
-2.1599e-246
2.77872e-245
-3.57483e-244
4.59904e-243
-5.91668e-242
7.61184e-241
-9.79265e-240
1.25983e-238
-1.62077e-237
2.08514e-236
-2.68253e-235
3.4511e-234
-4.43984e-233
5.71189e-232
-7.34836e-231
9.45371e-230
-1.21622e-228
1.56468e-227
-2.01296e-226
2.58969e-225
-3.33164e-224
4.28617e-223
-5.51417e-222
7.09401e-221
-9.12647e-220
1.17412e-218
-1.51052e-217
1.94329e-216
-2.50005e-215
3.21632e-214
-4.13781e-213
5.32331e-212
-6.84846e-211
8.81057e-210
-1.13348e-208
1.45823e-207
-1.87602e-206
2.41351e-205
-3.10499e-204
3.99458e-203
-5.13905e-202
6.61141e-201
-8.50561e-200
1.09425e-198
-1.40776e-197
1.81109e-196
-2.32997e-195
2.99751e-194
-3.85632e-193
4.96117e-192
-6.38256e-191
8.21119e-190
-1.05637e-188
1.35903e-187
-1.7484e-186
2.24932e-185
-2.89376e-184
3.72284e-183
-4.78944e-182
6.16164e-181
-7.92697e-180
1.01981e-178
-1.31199e-177
1.68788e-176
-2.17146e-175
2.7936e-174
-3.59397e-173
4.62366e-172
-5.94836e-171
7.65259e-170
-9.84509e-169
1.26658e-167
-1.62945e-166
2.0963e-165
-2.6969e-164
3.46957e-163
-4.46362e-162
5.74247e-161
-7.38771e-160
9.50432e-159
-1.22273e-157
1.57305e-156
-2.02374e-155
2.60355e-154
-3.34948e-153
4.30912e-152
-5.5437e-151
7.13199e-150
-9.17534e-149
1.18041e-147
-1.5186e-146
1.95369e-145
-2.51343e-144
3.23354e-143
-4.15996e-142
5.35181e-141
-6.88513e-140
8.85774e-139
-1.13955e-137
1.46604e-136
-1.88607e-135
2.42643e-134
-3.12162e-133
4.01597e-132
-5.16656e-131
6.64681e-130
-8.55114e-129
1.10011e-127
-1.41529e-126
1.82078e-125
-2.34244e-124
3.01357e-123
-3.87696e-122
4.98773e-121
-6.41673e-120
8.25516e-119
-1.06203e-117
1.36631e-116
-1.75776e-115
2.26136e-114
-2.90925e-113
3.74277e-112
-4.81509e-111
6.19463e-110
-7.96942e-109
1.02527e-107
-1.31901e-106
1.69692e-105
-2.18309e-104
2.80855e-103
-3.61322e-102
4.64842e-101
-5.98021e-100
7.69357e-99
-9.8978e-98
1.27336e-96
-1.63818e-95
2.10752e-94
-2.71134e-93
3.48815e-92
-4.48752e-91
5.77321e-90
-7.42726e-89
9.5552e-88
-1.22928e-86
8.24604e-86
3.82307e-85
-7.86941e-84
6.91082e-84
3.5339e-82
-2.57203e-81
-1.31786e-80
2.28937e-79
4.20663e-79
-1.30466e-77
-1.55709e-77
6.63791e-76
7.33214e-76
-3.18672e-74
-4.47676e-74
1.32375e-72
3.18413e-72
-4.19469e-71
-2.21371e-70
9.07833e-70
1.39454e-68
-3.89428e-69
-7.74571e-67
-1.05174e-66
1.71774e-65
1.14667e-64
-1.16588e-64
-6.89589e-63
-1.04216e-62
1.00455e-61
1.21202e-60
6.84893e-61
-3.13787e-59
-1.91094e-58
1.89974e-59
6.68147e-57
2.96539e-56
-1.25172e-56
-1.09065e-54
-1.84936e-53
-2.72947e-52
-3.83934e-51
-3.88365e-50
-5.26082e-50
1.91675e-49
3.94055e-48
4.90166e-47
5.5267e-46
5.92993e-45
6.11121e-44
6.06473e-43
5.80287e-42
5.3583e-41
4.77886e-40
4.11974e-39
3.43537e-38
2.77288e-37
2.16779e-36
1.64247e-35
1.20674e-34
8.602e-34
5.95219e-33
3.99993e-32
2.61171e-31
1.6576e-30
1.02304e-29
6.14231e-29
3.58886e-28
2.04135e-27
1.13072e-26
6.10105e-26
3.2077e-25
1.64379e-24
8.21243e-24
4.00111e-23
1.90141e-22
8.81558e-22
3.9884e-21
1.76118e-20
7.59182e-20
3.19521e-19
1.31322e-18
5.27132e-18
2.06685e-17
7.91707e-17
2.96301e-16
1.08359e-15
3.87256e-15
1.35262e-14
4.61771e-14
1.54093e-13
5.02656e-13
1.60291e-12
4.99707e-12
1.523e-11
4.53808e-11
1.32201e-10
3.76519e-10
1.04839e-09
2.85383e-09
7.59438e-09
1.97557e-08
5.02347e-08
1.24852e-07
3.03271e-07
7.19895e-07
1.66979e-06
3.78401e-06
8.3769e-06
1.81129e-05
3.82462e-05
7.88508e-05
0.00015869
0.000311691
0.00059734
0.00111667
0.00203569
0.00361781
0.00626589
0.0105722
0.0173713
0.0277844
0.0432401
0.0654475
0.0962976
0.137672
0.191149
0.257629
0.336918
0.42737
0.52569
0.627019
0.725361
0.814373
0.888362
0.943311
0.977842
0.994315
0.99925
0.999963
0.999999
1
1
1
1
1
1
1
1
1
1
1
1
1
1
1
1
1
1
1
1
1
1
1
1
1
1
1
1
1
1
1
1
1
1
1
1
1
1
1
1
1
1
1
1
1
1
1
1
1
1
1
1
1
1
1
1
1
1
1
1
1
1
1
1
0.999999
0.999998
0.999996
0.999992
0.999982
0.999962
0.999921
0.999841
0.999688
0.999402
0.998882
0.997961
0.996377
0.993726
0.989415
0.982609
0.972187
0.956719
0.934497
0.903629
0.862234
0.808735
0.742235
0.662929
0.572466
0.474143
0.372821
0.274495
0.185508
0.111549
0.0566306
0.0221276
0.00567423
0.000747724
3.70568e-05
4.97823e-07
1.35281e-09
5.86343e-13
5.21776e-17
4.57659e-21
3.96768e-25
3.41055e-29
2.91604e-33
2.48717e-37
2.12109e-41
1.81139e-45
1.55014e-49
1.32936e-53
1.14199e-57
9.82119e-62
8.45076e-66
7.27198e-70
6.25614e-74
5.38021e-78
4.62516e-82
3.97483e-86
3.41522e-90
2.93408e-94
2.52064e-98
2.16552e-102
1.86051e-106
1.59853e-110
1.3735e-114
1.18017e-118
1.01406e-122
8.71313e-127
7.48649e-131
6.43239e-135
5.52657e-139
4.7482e-143
4.07939e-147
3.50472e-151
3.01098e-155
2.58676e-159
2.22229e-163
1.90915e-167
1.64012e-171
1.40899e-175
1.21042e-179
1.03983e-183
8.93266e-188
7.67357e-192
6.5919e-196
5.66266e-200
4.86438e-204
4.1786e-208
3.58948e-212
3.0834e-216
2.64865e-220
2.27519e-224
1.95437e-228
1.67877e-232
1.44203e-236
1.23867e-240
1.06397e-244
9.13905e-249
7.84998e-253
6.74266e-257
5.79149e-261
4.97443e-265
4.2726e-269
3.66974e-273
3.15191e-277
2.70711e-281
2.32506e-285
1.99689e-289
1.71503e-293
1.47293e-297
1.26498e-301
1.08638e-305
9.32985e-310
8.01236e-314
6.88081e-318
5.78057e-322
0
0
0
0
0
0
0
0
0
0
0
0
0
0
0
0
0
0
0
0
0
0
0
0
0
0
0
0
0
0
0
0
0
0
0
0
0
0
0
0
0
0
0
0
0
0
0
0
0
0
0
0
0
0
0
0
0
0
0
0
0
0
0
0
0
0
0
0
0
0
0
0
0
0
0
0
0
0
0
0
0
0
0
0
0
0
0
0
0
0
0
0
0
0
0
0
0
0
0
0
0
0
0
0
0
0
0
0
0
0
0
0
0
0
0
0
0
0
0
0
0
0
0
0
0
0
0
0
0
0
0
0
0
0
0
0
0
0
0
0
0
0
0
0
0
0
0
0
0
0
0
0
0
0
0
0
0
0
0
0
0
0
0
0
0
0
0
0
0
0
0
0
0
0
0
0
0
0
0
0
0
0
0
0
0
0
0
0
0
0
0
0
0
0
0
0
0
0
0
0
0
0
0
0
0
0
0
0
0
0
0
0
0
0
0
0
0
0
0
0
0
0
0
0
0
0
0
0
0
0
0
0
0
0
0
0
0
0
0
0
0
0
0
0
0
0
0
0
0
)
;

boundaryField
{
    sides
    {
        type            zeroGradient;
    }
    empty
    {
        type            empty;
    }
}


// ************************************************************************* //
