/*--------------------------------*- C++ -*----------------------------------*\
| =========                 |                                                 |
| \\      /  F ield         | OpenFOAM: The Open Source CFD Toolbox           |
|  \\    /   O peration     | Version:  2312                                  |
|   \\  /    A nd           | Website:  www.openfoam.com                      |
|    \\/     M anipulation  |                                                 |
\*---------------------------------------------------------------------------*/
FoamFile
{
    version     2.0;
    format      ascii;
    arch        "LSB;label=32;scalar=64";
    class       volScalarField;
    location    "0.3";
    object      T;
}
// * * * * * * * * * * * * * * * * * * * * * * * * * * * * * * * * * * * * * //

dimensions      [0 0 0 1 0 0 0];

internalField   nonuniform List<scalar> 
1000
(
0
0
0
0
0
0
0
0
0
0
0
0
0
0
0
0
0
0
0
0
0
0
0
0
0
0
0
0
0
0
6.91692e-323
7.46039e-322
7.56415e-321
7.55723e-320
7.53519e-319
7.50419e-318
7.46577e-317
7.42009e-316
7.36728e-315
7.30747e-314
7.24079e-313
7.16744e-312
7.08758e-311
7.00143e-310
6.90922e-309
6.81119e-308
6.70758e-307
6.59868e-306
6.48477e-305
6.36614e-304
6.24311e-303
6.11598e-302
5.98509e-301
5.85076e-300
5.71333e-299
5.57314e-298
5.43054e-297
5.28586e-296
5.13944e-295
4.99164e-294
4.84277e-293
4.69319e-292
4.5432e-291
4.39314e-290
4.24331e-289
4.09401e-288
3.94554e-287
3.79817e-286
3.65217e-285
3.5078e-284
3.3653e-283
3.22489e-282
3.08679e-281
2.9512e-280
2.8183e-279
2.68825e-278
2.56121e-277
2.43731e-276
2.31668e-275
2.19941e-274
2.0856e-273
1.97532e-272
1.86864e-271
1.76559e-270
1.66621e-269
1.57052e-268
1.47852e-267
1.39021e-266
1.30557e-265
1.22457e-264
1.14718e-263
1.07334e-262
1.003e-261
9.36096e-261
8.72554e-260
8.12297e-259
7.55241e-258
7.01297e-257
6.50372e-256
6.02369e-255
5.57189e-254
5.14728e-253
4.74884e-252
4.3755e-251
4.02622e-250
3.69992e-249
3.39556e-248
3.11209e-247
2.84846e-246
2.60367e-245
2.37669e-244
2.16657e-243
1.97233e-242
1.79305e-241
1.62782e-240
1.47579e-239
1.33609e-238
1.20794e-237
1.09055e-236
9.8318e-236
8.85133e-235
7.95733e-234
7.14344e-233
6.40362e-232
5.73216e-231
5.1237e-230
4.57318e-229
4.07586e-228
3.6273e-227
3.22336e-226
2.86017e-225
2.53413e-224
2.24191e-223
1.98041e-222
1.74678e-221
1.53837e-220
1.35278e-219
1.18775e-218
1.04126e-217
9.11425e-217
7.96544e-216
6.9506e-215
6.05556e-214
5.26749e-213
4.57473e-212
3.96678e-211
3.43413e-210
2.96824e-209
2.56143e-208
2.20679e-207
1.89816e-206
1.63002e-205
1.39747e-204
1.19611e-203
1.02207e-202
8.71895e-202
7.4254e-201
6.31312e-200
5.35836e-199
4.54026e-198
3.84049e-197
3.24299e-196
2.73372e-195
2.30043e-194
1.93243e-193
1.62046e-192
1.35646e-191
1.13345e-190
9.45423e-190
7.87176e-189
6.54237e-188
5.42765e-187
4.49468e-186
3.71528e-185
3.06539e-184
2.52451e-183
2.0752e-182
1.70268e-181
1.39441e-180
1.1398e-179
9.2991e-179
7.57225e-178
6.15426e-177
4.99216e-176
4.04166e-175
3.26576e-174
2.63364e-173
2.11969e-172
1.70266e-171
1.36496e-170
1.09204e-169
8.71933e-169
6.94781e-168
5.52494e-167
4.38448e-166
3.47227e-165
2.74416e-164
2.16421e-163
1.70326e-162
1.33766e-161
1.04831e-160
8.19806e-160
6.39735e-159
4.98141e-158
3.87047e-157
3.00074e-156
2.32134e-155
1.79181e-154
1.38001e-153
1.06048e-152
8.13108e-152
6.22032e-151
4.74779e-150
3.61557e-149
2.74704e-148
2.08232e-147
1.57478e-146
1.18817e-145
8.9436e-145
6.71611e-144
5.0314e-143
3.76027e-142
2.8035e-141
2.08511e-140
1.54702e-139
1.14498e-138
8.45326e-138
6.22546e-137
4.57332e-136
3.35118e-135
2.44942e-134
1.78575e-133
1.29856e-132
9.41856e-132
6.81361e-131
4.91624e-130
3.53791e-129
2.53927e-128
1.81766e-127
1.29763e-126
9.23881e-126
6.55994e-125
4.6451e-124
3.28015e-123
2.30988e-122
1.62207e-121
1.13588e-120
7.93167e-120
5.52281e-119
3.83452e-118
2.65465e-117
1.83249e-116
1.26126e-115
8.65546e-115
5.92225e-114
4.04004e-113
2.74776e-112
1.86318e-111
1.25953e-110
8.48845e-110
5.70302e-109
3.81969e-108
2.55029e-107
1.69738e-106
1.12613e-105
7.44741e-105
4.90931e-104
3.2257e-103
2.11254e-102
1.37897e-101
8.97143e-101
5.81721e-100
3.75927e-99
2.42112e-98
1.55398e-97
9.93975e-97
6.33574e-96
4.02439e-95
2.54725e-94
1.60657e-93
1.00965e-92
6.32236e-92
3.94464e-91
2.45213e-90
1.51872e-89
9.37119e-89
5.76081e-88
3.52802e-87
2.1524e-86
1.30812e-85
7.91941e-85
4.77576e-84
2.86869e-83
1.71634e-82
1.02279e-81
6.07043e-81
3.58829e-80
2.1124e-79
1.23843e-78
7.23032e-78
4.20358e-77
2.43355e-76
1.40284e-75
8.052e-75
4.60164e-74
2.61829e-73
1.48322e-72
8.36478e-72
4.69625e-71
2.62469e-70
1.46021e-69
8.08631e-69
4.45719e-68
2.44529e-67
1.33518e-66
7.25557e-66
3.92379e-65
2.11166e-64
1.13085e-63
6.02606e-63
3.19511e-62
1.68555e-61
8.84668e-61
4.61937e-60
2.39953e-59
1.23991e-58
6.37311e-58
3.25828e-57
1.65683e-56
8.37915e-56
4.21433e-55
2.10785e-54
1.04836e-53
5.18462e-53
2.54937e-52
1.24634e-51
6.05755e-51
2.92679e-50
1.40571e-49
6.71086e-49
3.1843e-48
1.50168e-47
7.03778e-47
3.27766e-46
1.51681e-45
6.97445e-45
3.18616e-44
1.44602e-43
6.51931e-43
2.91954e-42
1.29862e-41
5.73679e-41
2.51678e-40
1.09642e-39
4.74272e-39
2.03687e-38
8.68453e-38
3.67572e-37
1.54424e-36
6.43907e-36
2.6646e-35
1.09421e-34
4.45849e-34
1.80242e-33
7.2287e-33
2.87581e-32
1.13479e-31
4.44096e-31
1.72347e-30
6.63208e-30
2.53027e-29
9.56998e-29
3.58782e-28
1.33315e-27
4.90914e-27
1.79126e-26
6.47567e-26
2.31917e-25
8.22714e-25
2.89052e-24
1.00568e-23
3.4645e-23
1.18157e-22
3.98897e-22
1.33284e-21
4.40711e-21
1.44185e-20
4.66676e-20
1.49407e-19
4.73064e-19
1.48113e-18
4.58483e-18
1.40292e-17
4.24282e-17
1.26797e-16
3.7439e-16
1.09199e-15
3.14568e-15
8.94811e-15
2.51296e-14
6.96618e-14
1.90578e-13
5.14435e-13
1.36988e-12
3.59778e-12
9.31745e-12
2.3789e-11
5.98653e-11
1.48456e-10
3.627e-10
8.72815e-10
2.06834e-09
4.82551e-09
1.10811e-08
2.504e-08
5.56665e-08
1.21718e-07
2.61701e-07
5.53146e-07
1.14908e-06
2.34546e-06
4.70286e-06
9.26075e-06
1.79049e-05
3.39809e-05
6.3289e-05
0.000115651
0.000207302
0.000364409
0.000628082
0.0010612
0.00175732
0.0028517
0.00453404
0.00706218
0.010775
0.0161021
0.0235675
0.0337831
0.0474296
0.0652214
0.0878552
0.115945
0.149948
0.190087
0.236288
0.288133
0.344847
0.40532
0.468169
0.531831
0.59468
0.655153
0.711867
0.763712
0.809913
0.850052
0.884055
0.912145
0.934779
0.95257
0.966217
0.976432
0.983898
0.989225
0.992938
0.995466
0.997148
0.998243
0.998939
0.999372
0.999636
0.999793
0.999884
0.999937
0.999966
0.999982
0.999991
0.999995
0.999998
0.999999
0.999999
1
1
1
1
1
1
1
1
1
1
1
1
1
1
1
1
1
1
1
1
1
1
1
1
1
1
1
1
1
1
1
1
1
1
1
1
0.999999
0.999999
0.999998
0.999995
0.999991
0.999982
0.999966
0.999937
0.999884
0.999793
0.999636
0.999372
0.998939
0.998243
0.997148
0.995466
0.992938
0.989225
0.983898
0.976432
0.966217
0.95257
0.934779
0.912145
0.884055
0.850052
0.809913
0.763712
0.711867
0.655153
0.59468
0.531831
0.468169
0.40532
0.344847
0.288133
0.236288
0.190087
0.149948
0.115945
0.0878552
0.0652214
0.0474296
0.0337831
0.0235675
0.0161021
0.010775
0.00706218
0.00453404
0.0028517
0.00175732
0.0010612
0.000628082
0.000364409
0.000207302
0.000115651
6.3289e-05
3.39809e-05
1.79049e-05
9.26075e-06
4.70286e-06
2.34546e-06
1.14908e-06
5.53146e-07
2.61701e-07
1.21718e-07
5.56665e-08
2.504e-08
1.10811e-08
4.82551e-09
2.06834e-09
8.72815e-10
3.627e-10
1.48456e-10
5.98653e-11
2.3789e-11
9.31745e-12
3.59778e-12
1.36988e-12
5.14435e-13
1.90578e-13
6.96618e-14
2.51296e-14
8.94811e-15
3.14568e-15
1.09199e-15
3.7439e-16
1.26797e-16
4.24282e-17
1.40292e-17
4.58483e-18
1.48113e-18
4.73064e-19
1.49407e-19
4.66676e-20
1.44185e-20
4.40711e-21
1.33284e-21
3.98897e-22
1.18157e-22
3.4645e-23
1.00568e-23
2.89052e-24
8.22714e-25
2.31917e-25
6.47567e-26
1.79126e-26
4.90914e-27
1.33315e-27
3.58782e-28
9.56998e-29
2.53027e-29
6.63208e-30
1.72347e-30
4.44096e-31
1.13479e-31
2.87581e-32
7.2287e-33
1.80242e-33
4.45849e-34
1.09421e-34
2.6646e-35
6.43907e-36
1.54424e-36
3.67572e-37
8.68453e-38
2.03687e-38
4.74272e-39
1.09642e-39
2.51678e-40
5.73679e-41
1.29862e-41
2.91954e-42
6.51931e-43
1.44602e-43
3.18616e-44
6.97445e-45
1.51681e-45
3.27766e-46
7.03778e-47
1.50168e-47
3.1843e-48
6.71086e-49
1.40571e-49
2.92679e-50
6.05755e-51
1.24634e-51
2.54937e-52
5.18462e-53
1.04836e-53
2.10785e-54
4.21433e-55
8.37915e-56
1.65683e-56
3.25828e-57
6.37311e-58
1.23991e-58
2.39953e-59
4.61937e-60
8.84668e-61
1.68555e-61
3.19511e-62
6.02606e-63
1.13085e-63
2.11166e-64
3.92379e-65
7.25557e-66
1.33518e-66
2.44529e-67
4.45719e-68
8.08631e-69
1.46021e-69
2.62469e-70
4.69625e-71
8.36478e-72
1.48322e-72
2.61829e-73
4.60164e-74
8.052e-75
1.40284e-75
2.43355e-76
4.20358e-77
7.23032e-78
1.23843e-78
2.1124e-79
3.58829e-80
6.07043e-81
1.02279e-81
1.71634e-82
2.86869e-83
4.77576e-84
7.91941e-85
1.30812e-85
2.1524e-86
3.52802e-87
5.76081e-88
9.37119e-89
1.51872e-89
2.45213e-90
3.94464e-91
6.32236e-92
1.00965e-92
1.60657e-93
2.54725e-94
4.02439e-95
6.33574e-96
9.93975e-97
1.55398e-97
2.42112e-98
3.75927e-99
5.81721e-100
8.97143e-101
1.37897e-101
2.11254e-102
3.2257e-103
4.90931e-104
7.44741e-105
1.12613e-105
1.69738e-106
2.55029e-107
3.81969e-108
5.70302e-109
8.48845e-110
1.25953e-110
1.86318e-111
2.74776e-112
4.04004e-113
5.92225e-114
8.65546e-115
1.26126e-115
1.83249e-116
2.65465e-117
3.83452e-118
5.52281e-119
7.93167e-120
1.13588e-120
1.62207e-121
2.30988e-122
3.28015e-123
4.6451e-124
6.55994e-125
9.23881e-126
1.29763e-126
1.81766e-127
2.53927e-128
3.53791e-129
4.91624e-130
6.81361e-131
9.41856e-132
1.29856e-132
1.78575e-133
2.44942e-134
3.35118e-135
4.57332e-136
6.22546e-137
8.45326e-138
1.14498e-138
1.54702e-139
2.08511e-140
2.8035e-141
3.76027e-142
5.0314e-143
6.71611e-144
8.9436e-145
1.18817e-145
1.57478e-146
2.08232e-147
2.74704e-148
3.61557e-149
4.74779e-150
6.22032e-151
8.13108e-152
1.06048e-152
1.38001e-153
1.79181e-154
2.32134e-155
3.00074e-156
3.87047e-157
4.98141e-158
6.39735e-159
8.19806e-160
1.04831e-160
1.33766e-161
1.70326e-162
2.16421e-163
2.74416e-164
3.47227e-165
4.38448e-166
5.52494e-167
6.94781e-168
8.71933e-169
1.09204e-169
1.36496e-170
1.70266e-171
2.11969e-172
2.63364e-173
3.26576e-174
4.04166e-175
4.99216e-176
6.15426e-177
7.57225e-178
9.2991e-179
1.1398e-179
1.39441e-180
1.70268e-181
2.0752e-182
2.52451e-183
3.06539e-184
3.71528e-185
4.49468e-186
5.42765e-187
6.54237e-188
7.87176e-189
9.45423e-190
1.13345e-190
1.35646e-191
1.62046e-192
1.93243e-193
2.30043e-194
2.73372e-195
3.24299e-196
3.84049e-197
4.54026e-198
5.35836e-199
6.31312e-200
7.4254e-201
8.71895e-202
1.02207e-202
1.19611e-203
1.39747e-204
1.63002e-205
1.89816e-206
2.20679e-207
2.56143e-208
2.96824e-209
3.43413e-210
3.96678e-211
4.57473e-212
5.26749e-213
6.05556e-214
6.9506e-215
7.96544e-216
9.11425e-217
1.04126e-217
1.18775e-218
1.35278e-219
1.53837e-220
1.74678e-221
1.98041e-222
2.24191e-223
2.53413e-224
2.86017e-225
3.22336e-226
3.6273e-227
4.07586e-228
4.57318e-229
5.1237e-230
5.73216e-231
6.40362e-232
7.14344e-233
7.95733e-234
8.85133e-235
9.8318e-236
1.09055e-236
1.20794e-237
1.33609e-238
1.47579e-239
1.62782e-240
1.79305e-241
1.97233e-242
2.16657e-243
2.37669e-244
2.60367e-245
2.84846e-246
3.11209e-247
3.39556e-248
3.69992e-249
4.02622e-250
4.3755e-251
4.74884e-252
5.14728e-253
5.57189e-254
6.02369e-255
6.50372e-256
7.01297e-257
7.55241e-258
8.12297e-259
8.72554e-260
9.36096e-261
1.003e-261
1.07334e-262
1.14718e-263
1.22457e-264
1.30557e-265
1.39021e-266
1.47852e-267
1.57052e-268
1.66621e-269
1.76559e-270
1.86864e-271
1.97532e-272
2.0856e-273
2.19941e-274
2.31668e-275
2.43731e-276
2.56121e-277
2.68825e-278
2.8183e-279
2.9512e-280
3.08679e-281
3.22489e-282
3.3653e-283
3.5078e-284
3.65217e-285
3.79817e-286
3.94554e-287
4.09401e-288
4.24331e-289
4.39314e-290
4.5432e-291
4.69319e-292
4.84277e-293
4.99164e-294
5.13944e-295
5.28586e-296
5.43054e-297
5.57314e-298
5.71333e-299
5.85076e-300
5.98509e-301
6.11598e-302
6.24311e-303
6.36614e-304
6.48477e-305
6.59868e-306
6.70758e-307
6.81119e-308
6.90922e-309
7.00143e-310
7.08758e-311
7.16744e-312
7.24079e-313
7.30747e-314
7.36728e-315
7.42009e-316
7.46577e-317
7.50419e-318
7.53524e-319
7.55723e-320
7.5592e-321
7.46039e-322
6.91692e-323
0
0
0
0
0
0
0
0
0
0
0
0
0
0
0
0
0
0
0
0
0
0
0
0
0
0
0
0
0
0
)
;

boundaryField
{
    sides
    {
        type            zeroGradient;
    }
    empty
    {
        type            empty;
    }
}


// ************************************************************************* //
