/*--------------------------------*- C++ -*----------------------------------*\
| =========                 |                                                 |
| \\      /  F ield         | OpenFOAM: The Open Source CFD Toolbox           |
|  \\    /   O peration     | Version:  2312                                  |
|   \\  /    A nd           | Website:  www.openfoam.com                      |
|    \\/     M anipulation  |                                                 |
\*---------------------------------------------------------------------------*/
FoamFile
{
    version     2.0;
    format      ascii;
    arch        "LSB;label=32;scalar=64";
    class       volScalarField;
    location    "4.5";
    object      T;
}
// * * * * * * * * * * * * * * * * * * * * * * * * * * * * * * * * * * * * * //

dimensions      [0 0 0 1 0 0 0];

internalField   nonuniform List<scalar> 
1000
(
0
0
0
0
0
0
0
0
0
0
0
0
0
0
0
0
0
0
0
0
0
0
0
0
0
0
0
0
0
0
0
0
0
0
0
0
0
0
0
0
0
0
0
0
0
0
0
0
0
0
0
0
0
0
0
0
0
0
0
0
0
0
0
0
0
0
0
0
0
0
0
0
0
0
0
0
0
0
0
0
0
0
0
0
0
0
0
0
0
0
0
0
0
0
0
0
0
0
0
0
0
0
0
0
0
0
0
0
0
0
0
0
0
0
0
0
0
0
0
0
0
0
0
0
0
0
0
0
0
0
0
0
0
0
0
0
0
0
0
0
0
0
0
0
0
0
0
0
0
0
0
0
0
0
0
0
0
0
0
0
0
0
0
0
0
0
0
0
0
0
0
0
0
-4.94066e-324
2.96439e-323
-4.94066e-324
2.96439e-323
-4.94066e-324
2.96439e-323
-4.94066e-324
2.96439e-323
-4.94066e-324
2.96439e-323
-4.94066e-324
2.96439e-323
-4.94066e-324
2.96439e-323
-4.94066e-324
2.96439e-323
-4.94066e-324
2.96439e-323
-4.94066e-324
2.96439e-323
-4.94066e-324
2.96439e-323
-4.94066e-324
2.96439e-323
-4.94066e-324
2.96439e-323
-4.94066e-324
2.96439e-323
-4.94066e-324
2.96439e-323
-4.94066e-324
2.96439e-323
-4.94066e-324
2.96439e-323
-4.94066e-324
2.96439e-323
-4.94066e-324
2.96439e-323
-4.94066e-324
2.96439e-323
-4.94066e-324
2.96439e-323
-4.94066e-324
2.96439e-323
-4.94066e-324
2.96439e-323
-4.94066e-324
2.96439e-323
-4.94066e-324
2.96439e-323
-4.94066e-324
2.96439e-323
-4.94066e-324
2.96439e-323
-4.94066e-324
2.96439e-323
-4.94066e-324
2.96439e-323
-4.94066e-324
2.96439e-323
-4.94066e-324
2.96439e-323
-4.94066e-324
2.96439e-323
-4.94066e-324
2.96439e-323
-4.94066e-324
2.96439e-323
-4.94066e-324
2.96439e-323
-4.94066e-324
2.96439e-323
-4.94066e-324
2.96439e-323
-4.94066e-324
2.96439e-323
-4.94066e-324
2.96439e-323
-4.94066e-324
2.96439e-323
-4.94066e-324
2.96439e-323
-4.94066e-324
2.96439e-323
-4.94066e-324
9.88131e-324
2.96439e-323
5.43472e-323
7.41098e-323
9.88131e-323
1.18576e-322
1.43279e-322
1.63042e-322
1.87745e-322
2.12448e-322
2.37152e-322
2.61855e-322
2.86558e-322
3.06321e-322
3.26083e-322
3.45846e-322
3.65609e-322
4.15015e-322
4.00193e-322
3.7549e-322
3.55727e-322
3.35965e-322
3.16202e-322
2.96439e-322
2.76677e-322
2.51973e-322
2.2727e-322
2.02567e-322
1.77864e-322
1.5316e-322
1.33398e-322
1.08694e-322
8.89318e-323
6.42285e-323
4.44659e-323
1.97626e-323
-4.94066e-324
-2.96439e-323
-4.94066e-323
-7.41098e-323
-9.38725e-323
-1.13635e-322
-1.38338e-322
-1.63042e-322
-1.87745e-322
-2.07508e-322
-2.2727e-322
-2.51973e-322
-2.71736e-322
-2.96439e-322
-3.16202e-322
-3.40905e-322
-3.65609e-322
-3.85371e-322
-4.05134e-322
-4.24896e-322
-4.496e-322
-4.74303e-322
-4.99006e-322
-5.2371e-322
-5.48413e-322
-5.73116e-322
-6.66989e-322
-1.84286e-321
-1.52567e-320
-4.26038e-319
-2.93263e-317
-2.00571e-315
-1.12893e-313
-5.26331e-312
-2.12368e-310
-9.07613e-310
2.31922e-309
1.22486e-307
3.35443e-306
8.02058e-305
1.73443e-303
3.42401e-302
6.20963e-301
1.03998e-299
1.61581e-298
2.3382e-297
3.16238e-296
4.00966e-295
4.7783e-294
5.36262e-293
5.67534e-292
5.67199e-291
5.38839e-290
4.99623e-289
4.81111e-288
5.19545e-287
6.47877e-286
9.05739e-285
1.37909e-283
2.30364e-282
4.26585e-281
8.5462e-280
1.7656e-278
3.62485e-277
7.1873e-276
1.35307e-274
6.42814e-274
-3.2367e-275
-1.89647e-272
-3.28442e-271
-4.82927e-270
-6.59612e-269
-8.48085e-268
-1.03013e-266
-1.18481e-265
-1.29461e-264
-1.35552e-263
-1.39169e-262
-1.46664e-261
-1.67772e-260
-2.14508e-259
-3.02074e-258
-4.549e-257
-7.26864e-256
-1.24895e-254
-2.3267e-253
-4.57792e-252
-9.20071e-251
-1.8239e-249
-3.57037e-248
-4.23413e-247
-4.57576e-247
4.49574e-246
9.74472e-245
1.53977e-243
2.22829e-242
3.03032e-241
3.89192e-240
4.73116e-239
5.4539e-238
5.97266e-237
6.22538e-236
6.18985e-235
5.89138e-234
5.40733e-233
4.87019e-232
4.45056e-231
4.30599e-230
4.55929e-229
5.47965e-228
7.989e-227
1.48275e-225
3.30988e-224
7.99044e-223
1.91383e-221
4.49156e-220
6.32289e-219
6.86213e-219
-8.30873e-218
-1.99713e-216
-3.58436e-215
-5.87862e-214
-9.00495e-213
-1.29473e-211
-1.75241e-210
-2.23858e-209
-2.70579e-208
-3.10265e-207
-3.38467e-206
-3.52407e-205
-3.51643e-204
-3.38382e-203
-3.17444e-202
-2.95551e-201
-2.79789e-200
-2.76146e-199
-2.89117e-198
-3.21881e-197
-3.76314e-196
-4.52754e-195
-5.51565e-194
-6.77525e-193
-8.46881e-192
-1.07539e-190
-1.37406e-189
-1.74531e-188
-1.67081e-187
-2.36401e-187
7.40948e-187
1.70382e-185
2.49846e-184
3.54698e-183
4.87511e-182
6.27468e-181
7.27344e-180
7.77209e-179
9.01008e-178
1.28867e-176
2.04414e-175
3.06068e-174
4.01231e-173
4.50442e-172
4.26314e-171
3.37299e-170
2.55584e-169
2.67744e-168
4.51357e-167
9.28327e-166
1.94018e-164
2.93473e-163
4.5053e-163
-2.2454e-162
-3.26688e-161
-3.36191e-161
2.78286e-160
8.73011e-160
-1.06252e-159
-3.23511e-158
-3.51909e-157
-2.92334e-156
-8.09357e-156
-3.98844e-156
5.57972e-155
4.78053e-154
1.67699e-153
1.57351e-153
-3.08895e-153
-3.36931e-152
-1.80732e-151
-8.03718e-151
-3.36231e-150
-1.42267e-149
-6.41041e-149
-3.44017e-148
-2.65105e-147
-2.89186e-146
-3.51357e-145
-3.99954e-144
-3.99902e-143
-3.4511e-142
-2.55815e-141
-1.61664e-140
-8.7401e-140
-4.47741e-139
-2.83746e-138
-2.66824e-137
-3.23144e-136
-4.25367e-135
-4.55162e-134
-7.12262e-134
1.96057e-133
4.03042e-132
7.98456e-132
-1.46034e-131
-3.9605e-130
-4.02147e-129
-5.67206e-129
1.66688e-128
3.37489e-127
1.81797e-126
1.59156e-126
1.26509e-126
1.28038e-125
2.04216e-124
2.52636e-123
2.85153e-122
2.90361e-121
7.22967e-121
-1.95674e-121
-1.10851e-119
-1.38241e-119
6.49823e-119
1.13313e-117
1.25966e-116
5.61827e-116
3.91193e-116
-4.75428e-115
-6.37856e-114
-3.30307e-113
-2.81225e-113
2.12399e-112
2.93984e-111
1.45932e-110
1.20898e-110
-9.3046e-110
-1.24358e-108
-9.74537e-108
-1.50892e-107
1.75575e-107
4.26894e-106
4.03834e-105
1.10626e-104
3.08473e-105
-1.25294e-103
-1.33982e-102
-9.68602e-102
-1.57551e-101
1.09271e-101
3.3324e-100
3.0255e-99
9.01878e-99
4.48583e-99
-7.37845e-98
-7.75309e-97
-6.08173e-96
-1.71365e-95
-9.05281e-96
1.2555e-94
1.29175e-93
9.80217e-93
2.86864e-92
1.77596e-92
-1.75025e-91
-1.80515e-90
-1.34072e-89
-4.49446e-89
-3.56186e-89
1.91819e-88
2.1056e-87
1.55751e-86
6.30779e-86
6.15754e-86
-1.58162e-85
-2.07267e-84
-1.52832e-83
-1.00392e-82
-6.33502e-82
-3.92053e-81
-2.39409e-80
-1.44534e-79
-8.6386e-79
-5.11463e-78
-2.99812e-77
-1.73394e-76
-7.13374e-76
-8.08663e-76
6.84225e-76
1.3499e-74
9.43323e-74
5.60406e-73
3.1533e-72
1.73119e-71
9.36503e-71
5.00923e-70
2.65272e-69
1.39151e-68
7.23178e-68
3.72403e-67
1.90027e-66
9.60882e-66
4.81496e-65
2.3911e-64
1.17679e-63
5.73998e-63
2.77487e-62
1.32957e-61
6.3143e-61
2.97234e-60
1.38689e-59
6.4146e-59
2.94096e-58
1.33664e-57
6.02217e-57
2.68979e-56
1.19102e-55
5.22836e-55
2.27545e-54
9.81827e-54
4.20027e-53
1.78157e-52
7.49239e-52
3.1242e-51
1.29172e-50
5.29558e-50
2.15271e-49
8.67739e-49
3.46844e-48
1.37476e-47
5.4035e-47
2.10613e-46
8.14074e-46
3.12045e-45
1.18618e-44
4.4717e-44
1.67181e-43
6.19869e-43
2.27938e-42
8.31269e-42
3.00664e-41
1.07855e-40
3.83725e-40
1.35403e-39
4.7388e-39
1.64492e-38
5.66315e-38
1.93382e-37
6.54966e-37
2.20024e-36
7.33119e-36
2.42288e-35
7.94232e-35
2.58239e-34
8.32831e-34
2.66413e-33
8.45313e-33
2.66039e-32
8.30504e-32
2.57161e-31
7.89836e-31
2.40624e-30
7.27124e-30
2.17946e-29
6.47975e-29
1.91089e-28
5.58963e-28
1.6218e-27
4.66742e-27
1.33236e-26
3.77251e-26
1.0595e-25
2.95142e-25
8.15489e-25
2.23491e-24
6.0751e-24
1.63793e-23
4.38009e-23
1.16175e-22
3.05619e-22
7.97411e-22
2.06354e-21
5.29626e-21
1.34817e-20
3.40358e-20
8.52187e-20
2.11611e-19
5.21119e-19
1.2727e-18
3.08248e-18
7.40371e-18
1.76347e-17
4.16532e-17
9.75621e-17
2.26599e-16
5.21881e-16
1.19182e-15
2.69878e-15
6.0594e-15
1.34893e-14
2.97737e-14
6.51555e-14
1.41362e-13
3.04062e-13
6.48381e-13
1.37064e-12
2.87228e-12
5.96661e-12
1.2286e-11
2.50761e-11
5.07296e-11
1.01718e-10
2.02141e-10
3.98116e-10
7.77051e-10
1.50298e-09
2.88073e-09
5.47113e-09
1.02957e-08
1.91963e-08
3.54602e-08
6.48937e-08
1.17646e-07
2.11273e-07
3.75814e-07
6.62126e-07
1.15536e-06
1.99655e-06
3.41661e-06
5.78939e-06
9.71321e-06
1.61344e-05
2.65319e-05
4.31891e-05
6.95884e-05
0.000110973
0.000175137
0.000273513
0.000422647
0.00064615
0.00097724
0.00146196
0.00216316
0.0031653
0.00457995
0.00655204
0.00926634
0.012954
0.0178979
0.0244373
0.032968
0.0439406
0.0578511
0.0752265
0.0966015
0.122488
0.153335
0.189485
0.231123
0.278232
0.330542
0.387507
0.448283
0.511742
0.576507
0.641012
0.7036
0.762626
0.816583
0.864221
0.904645
0.937388
0.962433
0.980184
0.991417
0.997295
0.999491
0.999957
0.999999
1
1
1
1
1
1
1
1
1
1
1
1
1
1
1
1
1
1
1
1
1
1
1
1
1
1
1
1
1
1
1
1
1
1
1
1
1
1
1
1
1
1
1
1
1
1
0.999999
0.999999
0.999998
0.999997
0.999994
0.99999
0.999984
0.999973
0.999957
0.99993
0.999889
0.999825
0.999726
0.999577
0.999353
0.999022
0.998537
0.997835
0.996832
0.995416
0.993443
0.990727
0.987037
0.98209
0.975548
0.967013
0.956035
0.942119
0.924736
0.903354
0.877459
0.846603
0.810444
0.768796
0.72168
0.669362
0.612391
0.551611
0.48815
0.423386
0.358884
0.296303
0.237285
0.183338
0.135712
0.0953005
0.0625698
0.037537
0.0197964
0.00857185
0.00270039
0.000507395
4.29793e-05
1.18623e-06
7.79131e-09
9.32493e-12
1.6523e-15
1.39303e-19
1.18161e-23
1.01173e-27
8.74181e-32
7.60294e-36
6.63491e-40
5.79431e-44
5.05509e-48
4.40221e-52
3.82639e-56
3.32074e-60
2.87895e-64
2.49468e-68
2.16151e-72
1.87318e-76
1.6238e-80
1.40807e-84
1.22132e-88
1.05952e-92
9.19225e-97
7.97517e-101
6.91899e-105
6.00236e-109
5.20687e-113
4.5166e-117
3.91772e-121
3.39819e-125
2.94754e-129
2.55667e-133
2.21764e-137
1.92359e-141
1.66853e-145
1.4473e-149
1.2554e-153
1.08894e-157
9.44555e-162
8.19309e-166
7.10667e-170
6.1643e-174
5.34687e-178
4.63782e-182
4.0228e-186
3.48933e-190
3.02659e-194
2.62522e-198
2.27707e-202
1.97509e-206
1.71315e-210
1.48595e-214
1.28887e-218
1.11794e-222
9.69666e-227
8.41059e-231
7.29508e-235
6.3275e-239
5.48825e-243
4.76031e-247
4.1289e-251
3.58124e-255
3.10622e-259
2.69419e-263
2.33682e-267
2.02684e-271
1.75798e-275
1.52478e-279
1.32251e-283
1.14708e-287
9.94907e-292
8.62923e-296
7.48447e-300
6.49156e-304
5.63036e-308
4.8834e-312
4.23552e-316
3.66992e-320
0
0
0
0
0
0
0
0
0
0
0
0
0
0
0
0
0
0
0
0
0
0
0
0
0
0
0
0
0
0
0
0
0
0
0
0
0
0
0
0
0
)
;

boundaryField
{
    sides
    {
        type            zeroGradient;
    }
    empty
    {
        type            empty;
    }
}


// ************************************************************************* //
