/*--------------------------------*- C++ -*----------------------------------*\
| =========                 |                                                 |
| \\      /  F ield         | OpenFOAM: The Open Source CFD Toolbox           |
|  \\    /   O peration     | Version:  2312                                  |
|   \\  /    A nd           | Website:  www.openfoam.com                      |
|    \\/     M anipulation  |                                                 |
\*---------------------------------------------------------------------------*/
FoamFile
{
    version     2.0;
    format      ascii;
    arch        "LSB;label=32;scalar=64";
    class       volScalarField;
    location    "4.5";
    object      T;
}
// * * * * * * * * * * * * * * * * * * * * * * * * * * * * * * * * * * * * * //

dimensions      [0 0 0 1 0 0 0];

internalField   nonuniform List<scalar> 
1000
(
1.17003e-287
-9.39539e-288
8.98959e-287
-4.67778e-286
2.57569e-285
-1.40246e-284
7.61489e-284
-4.11876e-283
2.21944e-282
-1.19146e-281
6.37184e-281
-3.39463e-280
1.80158e-279
-9.52443e-279
5.01578e-278
-2.63114e-277
1.37482e-276
-7.15536e-276
3.70933e-275
-1.91525e-274
9.84942e-274
-5.04478e-273
2.57342e-272
-1.30738e-271
6.61467e-271
-3.33286e-270
1.67231e-269
-8.35599e-269
4.15764e-268
-2.05993e-267
1.01625e-266
-4.99212e-266
2.44167e-265
-1.18904e-264
5.76498e-264
-2.78279e-263
1.33731e-262
-6.39784e-262
3.04702e-261
-1.44458e-260
6.81736e-260
-3.20248e-259
1.49739e-258
-6.96864e-258
3.22781e-257
-1.48798e-256
6.82656e-256
-3.11675e-255
1.41606e-254
-6.40209e-254
2.88008e-253
-1.28917e-252
5.7414e-252
-2.54396e-251
1.12141e-250
-4.91768e-250
2.14524e-249
-9.30871e-249
4.01769e-248
-1.72471e-247
7.36342e-247
-3.1264e-246
1.32003e-245
-5.54208e-245
2.31357e-244
-9.60246e-244
3.96228e-243
-1.62532e-242
6.62727e-242
-2.68594e-241
1.08191e-240
-4.33095e-240
1.7228e-239
-6.80942e-239
2.67404e-238
-1.0432e-237
4.0426e-237
-1.556e-236
5.94785e-236
-2.2577e-235
8.50891e-235
-3.18368e-234
1.18243e-233
-4.3586e-233
1.59435e-232
-5.78649e-232
2.08339e-231
-7.43995e-231
2.63472e-230
-9.25067e-230
3.21954e-229
-1.11044e-228
3.79461e-228
-1.28437e-227
4.30467e-227
-1.42814e-226
4.68849e-226
-1.52249e-225
4.88819e-225
-1.55097e-224
4.86052e-224
-1.50356e-223
4.58784e-223
-1.37973e-222
4.08564e-222
-1.18992e-221
3.40386e-221
-9.54762e-221
2.62042e-220
-7.018e-220
1.82742e-219
-4.60292e-219
1.11309e-218
-2.5535e-218
5.44075e-218
-1.03026e-217
1.5322e-217
-7.79874e-218
-6.34989e-217
3.68134e-216
-1.40271e-215
4.48286e-215
-1.27564e-214
3.28523e-214
-7.61024e-214
1.53322e-213
-2.41009e-213
1.52083e-213
8.62813e-213
-5.17012e-212
1.9146e-211
-5.75557e-211
1.4839e-210
-3.26428e-210
5.69962e-210
-5.43627e-210
-1.19302e-209
9.19019e-209
-3.52181e-208
1.04075e-207
-2.53152e-207
4.91474e-207
-6.12465e-207
-3.98278e-207
5.84239e-206
-2.41525e-205
7.20461e-205
-1.6996e-204
3.00262e-204
-2.48095e-204
-8.40094e-204
5.38774e-203
-1.86377e-202
4.80655e-202
-9.24782e-202
9.74513e-202
1.69927e-201
-1.37931e-200
4.94569e-200
-1.26776e-199
2.32046e-199
-1.87418e-199
-6.88177e-199
4.17433e-198
-1.34855e-197
3.08057e-197
-4.45326e-197
-8.94192e-198
3.24051e-196
-1.30958e-195
3.42562e-195
-5.95239e-195
2.89831e-195
2.6047e-194
-1.26466e-193
3.55692e-193
-6.55716e-193
4.18336e-193
2.47167e-192
-1.2722e-191
3.58452e-191
-6.38825e-191
2.93157e-191
2.88052e-190
-1.33662e-189
3.49347e-189
-5.38553e-189
-8.35085e-190
3.73397e-188
-1.41107e-187
3.15369e-187
-3.3694e-187
-6.81679e-187
4.75377e-186
-1.39948e-185
2.37335e-185
-2.67012e-186
-1.38813e-184
5.42442e-184
-1.17643e-183
1.02426e-183
3.52597e-183
-1.95473e-182
5.05641e-182
-6.50351e-182
-7.56919e-182
6.8289e-181
-2.02443e-180
3.12113e-180
1.2663e-180
-2.39516e-179
7.82664e-179
-1.31802e-178
-1.46999e-179
8.67865e-178
-2.9788e-177
5.13082e-177
3.90073e-178
-3.30081e-176
1.12416e-175
-1.86158e-175
-4.94823e-176
1.31427e-174
-4.19107e-174
6.20774e-174
4.64689e-174
-5.37197e-173
1.52154e-172
-1.80761e-172
-3.27329e-172
2.18977e-171
-5.23748e-171
3.88002e-171
1.919e-170
-8.61701e-170
1.6301e-169
-3.27984e-171
-9.7877e-169
3.15405e-168
-4.12398e-168
-6.00683e-168
4.3917e-167
-1.01788e-166
5.34123e-167
4.47654e-166
-1.7101e-165
2.58239e-165
2.35641e-165
-2.27303e-164
5.50211e-164
-3.02386e-164
-2.38766e-163
8.97494e-163
-1.25049e-162
-1.65191e-162
1.2357e-161
-2.65003e-161
3.89246e-162
1.46594e-160
-4.48252e-160
4.21216e-160
1.45517e-159
-6.65857e-159
1.02918e-158
1.03691e-158
-9.01383e-158
1.90981e-157
1.04453e-159
-1.13114e-156
3.11209e-156
-1.86428e-156
-1.32501e-155
4.69354e-155
-4.87832e-155
-1.44797e-154
6.7321e-154
-9.3943e-154
-1.46261e-153
9.34549e-153
-1.58774e-152
-1.33371e-152
1.27211e-151
-2.4937e-151
-1.03697e-151
1.7161e-150
-3.73752e-150
-5.75293e-151
2.31475e-149
-5.4232e-149
-8.84411e-152
3.14359e-148
-7.68026e-148
4.91853e-149
4.31788e-147
-1.06576e-146
5.56638e-148
6.00774e-146
-1.45004e-145
-5.26496e-147
8.45371e-145
-1.92947e-144
-4.02324e-145
1.19763e-143
-2.49557e-143
-1.20418e-143
1.69661e-142
-3.10288e-142
-2.78763e-142
2.38298e-141
-3.63675e-141
-5.63179e-141
3.28525e-140
-3.86676e-140
-1.03724e-139
4.39234e-139
-3.3887e-139
-1.77448e-138
5.60656e-138
-1.56902e-138
-2.84e-137
6.67415e-137
2.47317e-137
-4.25094e-136
7.09989e-136
9.7821e-136
-5.9082e-135
6.07255e-135
2.12812e-134
-7.49853e-134
2.46185e-134
3.7177e-133
-8.38546e-133
-5.01033e-133
5.59844e-132
-7.54224e-132
-1.72903e-131
7.32796e-131
-3.62894e-131
-3.40969e-130
8.06356e-130
4.64171e-130
-5.26532e-129
6.57216e-129
1.7716e-128
-6.64393e-128
1.50369e-128
3.39939e-127
-6.48911e-127
-7.92733e-127
4.85545e-126
-3.54907e-126
-2.08412e-125
5.26888e-125
3.03284e-125
-3.34986e-124
3.56162e-124
1.27392e-123
-3.8849e-123
-1.03285e-123
2.26356e-122
-2.8089e-122
-8.11839e-122
2.70611e-121
4.71609e-122
-1.52904e-120
1.91725e-120
5.5441e-120
-1.80468e-119
-4.92502e-120
1.03703e-118
-1.13814e-118
-4.03761e-118
1.14487e-117
6.59106e-118
-6.97695e-117
5.44317e-117
3.03087e-116
-6.71347e-116
-7.78659e-116
4.52968e-115
-1.37568e-115
-2.23916e-114
3.39482e-114
7.86813e-114
-2.7121e-113
-1.04142e-113
1.55084e-112
-1.19211e-112
-6.85169e-112
1.37876e-111
2.11125e-111
-9.50256e-111
-1.04861e-111
5.09229e-110
-4.69128e-110
-2.18826e-109
4.64578e-109
6.83257e-109
-3.09011e-108
-5.87055e-109
1.66432e-107
-1.2518e-107
-7.49131e-107
1.33048e-106
2.69182e-106
-9.26457e-106
-5.87406e-106
5.28999e-105
-1.42386e-105
-2.60971e-104
2.86236e-104
1.11311e-103
-2.34974e-103
-3.89191e-103
1.50202e-102
8.68298e-103
-8.32654e-102
1.58086e-102
4.14011e-101
-3.69022e-101
-1.8576e-100
3.12328e-100
7.39389e-100
-2.06238e-99
-2.4511e-99
1.19659e-98
5.17956e-99
-6.35749e-98
1.05724e-98
3.14834e-97
-2.26942e-97
-1.46299e-96
1.90989e-96
6.37161e-96
-1.27641e-95
-2.57363e-95
7.60806e-95
9.37438e-95
-4.21967e-94
-2.84864e-94
2.22319e-93
5.12604e-94
-1.12594e-92
1.74668e-93
5.523e-92
-2.82765e-92
-2.63776e-91
2.26665e-91
1.23137e-90
-1.49168e-90
-5.63622e-90
8.9054e-90
2.53633e-89
-5.01103e-89
-1.125e-88
2.70894e-88
4.93172e-88
-1.42269e-87
-2.14331e-87
7.31111e-87
9.26951e-87
-3.69459e-86
-4.00847e-86
1.8425e-85
1.74348e-85
-9.09145e-85
-7.68077e-85
4.44699e-84
3.45289e-84
-2.15909e-83
-1.59473e-83
1.04134e-82
7.60096e-83
-4.99078e-82
-3.74216e-82
2.37649e-81
1.89743e-81
-1.12365e-80
-9.84982e-81
5.2695e-80
5.19656e-80
-2.44696e-79
-2.7659e-79
1.12251e-78
1.47561e-78
-5.07067e-78
-7.84881e-78
2.24564e-77
4.14459e-77
-9.68893e-77
-2.16523e-76
4.03411e-76
1.11584e-75
-1.59575e-75
-5.65713e-75
5.82336e-75
2.81382e-74
-1.83111e-74
-1.36888e-73
3.87247e-74
6.48889e-73
5.67059e-74
-2.98242e-72
-1.42315e-72
1.31987e-71
1.20339e-71
-5.5646e-71
-7.98202e-71
2.19508e-70
4.68243e-70
-7.82117e-70
-2.52586e-69
2.3044e-69
1.27148e-68
-3.79228e-69
-5.99245e-68
-1.5892e-68
2.63061e-67
2.24086e-67
-1.05878e-66
-1.65168e-66
3.7646e-66
9.81269e-66
-1.06698e-65
-5.11007e-65
1.39204e-65
2.38649e-64
1.02397e-64
-9.95593e-64
-1.16954e-63
3.59043e-63
7.86774e-63
-1.00528e-62
-4.2645e-62
1.14498e-62
1.97984e-61
1.08159e-61
-7.86644e-61
-1.12772e-60
2.51939e-60
7.10739e-60
-4.92808e-60
-3.55017e-59
-9.9605e-60
1.46343e-58
1.77183e-58
-4.74403e-58
-1.21685e-57
9.07258e-58
6.15906e-57
2.0693e-57
-2.46334e-56
-3.35698e-56
7.24193e-56
2.1892e-55
-8.49853e-56
-1.03039e-54
-7.28082e-55
3.63612e-54
7.06244e-54
-7.79171e-54
-3.87874e-53
-1.0306e-53
1.53359e-52
2.19559e-52
-3.96281e-52
-1.39386e-51
2.76215e-53
5.91929e-51
7.02766e-51
-1.63536e-50
-4.96755e-50
6.87609e-51
2.16802e-49
2.46028e-49
-5.90886e-49
-1.78942e-48
1.27754e-49
7.60833e-48
9.57262e-48
-1.87078e-47
-6.49053e-47
-1.124e-47
2.52261e-46
3.96442e-46
-4.82153e-46
-2.30821e-45
-1.31104e-45
7.56151e-45
1.63047e-44
-7.03241e-45
-7.67347e-44
-8.52821e-44
1.83816e-43
6.22644e-43
2.02814e-43
-2.20334e-42
-4.2184e-42
2.30469e-42
2.05579e-41
2.32225e-41
-4.5352e-41
-1.65504e-40
-8.6319e-41
5.18736e-40
1.19311e-39
-8.97543e-41
-4.87604e-39
-7.80715e-39
6.08898e-39
4.11025e-38
4.63037e-38
-8.17057e-38
-3.23076e-37
-2.43955e-37
8.33293e-37
2.42434e-36
1.0723e-36
-7.49518e-36
-1.76726e-35
-3.07021e-36
6.26516e-35
1.27007e-34
-6.12637e-36
-4.99203e-34
-9.11645e-34
1.91661e-34
3.84486e-33
6.60599e-33
-1.94432e-33
-2.88359e-32
-4.86584e-32
1.39497e-32
2.11081e-31
3.64891e-31
-6.77068e-32
-1.50449e-30
-2.77385e-30
8.35401e-33
1.03611e-29
2.11754e-29
5.10315e-30
-6.79193e-29
-1.60224e-28
-8.46036e-29
4.12114e-28
1.18275e-27
1.00411e-27
-2.18152e-27
-8.35641e-27
-1.0109e-26
8.42416e-27
5.50737e-26
9.03947e-26
5.08993e-28
-3.24676e-25
-7.25551e-25
-4.60504e-25
1.56061e-24
5.17638e-24
6.21026e-24
-4.21193e-24
-3.1703e-23
-5.82592e-23
-2.317e-23
1.51222e-22
4.35495e-22
4.94397e-22
-3.54414e-22
-2.56652e-21
-4.89021e-21
-2.81197e-21
1.01638e-20
3.43029e-20
4.83436e-20
1.18957e-22
-1.65452e-19
-4.07983e-19
-4.45188e-19
2.81484e-19
2.21325e-18
4.59677e-18
4.10582e-18
-5.08885e-18
-2.67095e-17
-5.10985e-17
-4.17312e-17
6.27702e-17
3.00726e-16
5.72368e-16
4.98257e-16
-5.80868e-16
-3.16135e-15
-6.4367e-15
-6.72855e-15
3.05338e-15
2.99794e-14
7.04761e-14
9.29742e-14
2.46167e-14
-2.31188e-13
-7.08098e-13
-1.19918e-12
-1.0425e-12
9.23083e-13
5.8401e-12
1.33061e-11
1.87695e-11
1.0932e-11
-2.77304e-11
-1.12019e-10
-2.31003e-10
-3.10492e-10
-1.75312e-10
4.48401e-10
1.82036e-09
3.8789e-09
5.69977e-09
4.83581e-09
-3.04119e-09
-2.33378e-08
-5.93045e-08
-1.05076e-07
-1.34661e-07
-8.92599e-08
1.29652e-07
6.46788e-07
1.55644e-06
2.79571e-06
3.92636e-06
3.83074e-06
3.85666e-07
-9.72071e-06
-3.07167e-05
-6.65236e-05
-0.00011789
-0.000177041
-0.000218954
-0.000188527
1.66832e-05
0.000567734
0.00172813
0.00387751
0.00753126
0.013351
0.0221406
0.0348226
0.052392
0.0758454
0.10609
0.143839
0.189499
0.243076
0.304095
0.371573
0.444026
0.51954
0.595892
0.67071
0.741661
0.806637
0.863929
0.912357
0.951339
0.98091
1.00166
1.01464
1.02122
1.0229
1.0212
1.0175
1.01297
1.00846
1.00456
1.00156
0.999544
0.998422
0.998015
0.998102
0.998471
0.998947
0.999404
0.999772
1.00002
1.00016
1.0002
1.00019
1.00014
1.00009
1.00004
1.00001
0.999986
0.999979
0.99998
0.999985
0.999991
0.999996
1
1
1
1
1
1
1
1
1
1
1
1
1
1
1
1
1
1
1
1
1
1
1
1
1
1
1
1
1
0.999999
0.999998
0.999997
0.999996
0.999996
1
1.00001
1.00003
1.00007
1.00012
1.00018
1.00022
1.00019
0.999983
0.999432
0.998272
0.996122
0.992469
0.986649
0.977859
0.965177
0.947608
0.924155
0.89391
0.856161
0.810501
0.756924
0.695905
0.628427
0.555974
0.48046
0.404108
0.32929
0.258339
0.193363
0.136071
0.0876433
0.0486608
0.0190901
-0.00166195
-0.0146436
-0.0212162
-0.0228954
-0.0211964
-0.0175024
-0.0129671
-0.00846125
-0.00455883
-0.00156081
0.000456343
0.00157782
0.00198524
0.00189823
0.00152912
0.00105336
0.000595502
0.000227942
-2.14695e-05
-0.000157095
-0.000202189
-0.000187208
-0.000141278
-8.71978e-05
-3.96161e-05
-5.5197e-06
1.39529e-05
2.12535e-05
2.03598e-05
1.52562e-05
9.05942e-06
3.7098e-06
5.92124e-08
-1.83287e-06
-2.35197e-06
-2.03251e-06
-1.36008e-06
-6.75642e-07
-1.5914e-07
1.39328e-07
2.50225e-07
2.37973e-07
1.67697e-07
8.76773e-08
2.471e-08
-1.2528e-08
-2.68492e-08
-2.60349e-08
-1.81615e-08
-9.17028e-09
-2.25794e-09
1.64156e-09
2.96542e-09
2.68491e-09
1.73973e-09
7.73145e-10
9.31344e-11
-2.44684e-10
-3.20478e-10
-2.53066e-10
-1.42098e-10
-4.69305e-11
1.05003e-11
3.24335e-11
3.14071e-11
2.05527e-11
8.96634e-12
9.28486e-13
-2.85652e-12
-3.511e-12
-2.58755e-12
-1.30115e-12
-3.03408e-13
2.24209e-13
3.6736e-13
2.97365e-13
1.6232e-13
4.80954e-14
-1.64841e-14
-3.71207e-14
-3.20652e-14
-1.82522e-14
-5.90681e-15
1.28506e-15
3.70992e-15
3.29607e-15
1.88992e-15
6.14087e-16
-1.26327e-16
-3.71097e-16
-3.25087e-16
-1.81566e-16
-5.50148e-17
1.57371e-17
3.70433e-17
3.07144e-17
1.61407e-17
4.14074e-18
-2.09881e-18
-3.63541e-18
-2.75646e-18
-1.31061e-18
-2.34164e-19
2.65325e-19
3.43606e-19
2.31629e-19
9.45082e-20
4.63318e-21
-3.0429e-20
-3.0608e-20
-1.78468e-20
-5.68376e-21
1.13787e-21
3.12665e-21
2.51427e-21
1.22026e-21
2.33338e-22
-2.19636e-22
-2.86102e-22
-1.85737e-22
-6.94934e-23
1.79479e-24
2.60505e-23
2.30995e-23
1.1889e-23
2.73282e-24
-1.65344e-24
-2.43287e-24
-1.61485e-24
-6.10632e-25
7.36644e-27
2.14764e-25
1.88188e-25
9.46352e-26
7.15919e-27
)
;

boundaryField
{
    sides
    {
        type            zeroGradient;
    }
    empty
    {
        type            empty;
    }
}


// ************************************************************************* //
