/*--------------------------------*- C++ -*----------------------------------*\
| =========                 |                                                 |
| \\      /  F ield         | OpenFOAM: The Open Source CFD Toolbox           |
|  \\    /   O peration     | Version:  2312                                  |
|   \\  /    A nd           | Website:  www.openfoam.com                      |
|    \\/     M anipulation  |                                                 |
\*---------------------------------------------------------------------------*/
FoamFile
{
    version     2.0;
    format      ascii;
    arch        "LSB;label=32;scalar=64";
    class       volScalarField;
    location    "2.4";
    object      T;
}
// * * * * * * * * * * * * * * * * * * * * * * * * * * * * * * * * * * * * * //

dimensions      [0 0 0 1 0 0 0];

internalField   nonuniform List<scalar> 
1000
(
0
0
0
0
0
0
0
0
0
0
0
0
0
0
0
0
0
0
0
0
0
0
0
0
0
0
0
0
0
0
0
0
0
0
0
0
0
0
0
0
0
0
0
0
0
0
0
0
0
0
0
0
0
0
0
0
0
0
0
0
0
0
0
0
0
0
0
0
0
0
0
0
0
0
0
0
0
0
0
0
0
0
0
0
0
0
0
0
0
0
0
0
0
0
0
0
0
0
0
0
0
0
0
0
0
0
0
0
0
0
0
0
0
0
0
0
0
0
0
0
0
0
0
0
0
0
0
0
0
0
0
0
0
0
0
0
0
0
0
0
0
0
0
0
0
0
0
0
0
0
0
0
0
0
0
0
0
0
0
0
0
0
0
0
0
0
0
0
0
0
0
0
0
0
0
0
0
0
0
0
0
0
0
0
0
0
0
0
0
0
0
0
0
0
0
0
0
0
0
0
0
0
0
0
0
0
0
0
0
0
0
0
0
0
0
0
0
0
0
0
0
0
0
0
0
0
0
0
0
0
0
0
0
0
0
0
0
0
0
0
0
0
0
0
0
0
0
0
0
0
0
0
0
0
0
0
0
0
0
0
0
0
0
0
0
0
0
0
0
0
0
0
0
0
0
0
0
0
0
0
0
0
0
0
0
0
0
0
0
0
0
0
0
0
0
0
0
0
0
0
0
0
0
0
0
0
0
0
0
0
0
0
0
0
0
0
0
0
0
0
0
0
0
0
0
0
0
0
0
0
0
0
0
0
0
0
0
0
0
0
0
0
0
0
0
0
0
0
0
0
0
0
0
0
0
0
0
0
0
0
0
0
0
0
0
0
0
0
0
0
0
0
0
0
0
0
0
0
0
0
0
0
0
0
0
0
0
0
0
0
0
0
0
0
0
0
0
0
0
0
0
0
0
0
1.45556e-99
-9.77108e-84
5.87125e-76
-3.42944e-72
-1.95828e-70
-3.7159e-70
3.78488e-67
2.1445e-65
7.19565e-64
1.78166e-62
3.53787e-61
5.89254e-60
8.46983e-59
1.07166e-57
1.21109e-56
1.23608e-55
1.14927e-54
9.8003e-54
7.70572e-53
5.60941e-52
3.79179e-51
2.38456e-50
1.39604e-49
7.60177e-49
3.83778e-48
1.78381e-47
7.52392e-47
2.78969e-46
8.34832e-46
1.35606e-45
-5.82683e-45
-7.91032e-44
-5.65853e-43
-3.28024e-42
-1.68989e-41
-8.02128e-41
-3.57207e-40
-1.50802e-39
-6.07466e-39
-2.34488e-38
-8.69894e-38
-3.10775e-37
-1.07084e-36
-3.56315e-36
-1.14622e-35
-3.56894e-35
-1.07707e-34
-3.15582e-34
-8.99602e-34
-2.50124e-33
-6.80293e-33
-1.8157e-32
-4.77009e-32
-1.2366e-31
-3.16792e-31
-8.01953e-31
-2.00276e-30
-4.91863e-30
-1.18284e-29
-2.77139e-29
-6.29241e-29
-1.37678e-28
-2.88644e-28
-5.76441e-28
-1.09002e-27
-1.94085e-27
-3.24517e-27
-5.13268e-27
-7.96309e-27
-1.33109e-26
-2.71142e-26
-6.79007e-26
-1.85132e-25
-4.94212e-25
-1.23143e-24
-2.81401e-24
-5.83779e-24
-1.08275e-23
-1.73383e-23
-2.16891e-23
-1.22905e-23
3.84136e-23
1.85092e-22
5.19365e-22
1.16467e-21
2.22561e-21
3.63645e-21
4.82745e-21
4.1223e-21
-2.1558e-21
-2.06752e-20
-6.15014e-20
-1.36364e-19
-2.51973e-19
-3.94212e-19
-4.98586e-19
-4.04526e-19
2.01118e-19
1.82813e-18
5.15924e-18
1.08563e-17
1.90481e-17
2.83356e-17
3.42895e-17
2.74591e-17
-1.04384e-17
-1.10565e-16
-3.15762e-16
-6.53085e-16
-1.04758e-15
-1.05689e-15
1.37624e-15
6.43263e-15
7.68145e-15
-6.05573e-15
-2.59849e-14
-1.67508e-14
4.00033e-14
7.63026e-14
-6.30072e-15
-1.68665e-13
-1.51183e-13
1.97244e-13
5.00133e-13
1.1076e-13
-9.22184e-13
-1.13001e-12
6.07035e-13
2.94359e-12
1.92141e-12
-3.80037e-12
-7.9578e-12
-1.29483e-12
1.45817e-11
1.83202e-11
-6.47871e-12
-4.47062e-11
-3.97671e-11
3.97199e-11
1.24981e-10
7.85278e-11
-1.47109e-10
-3.34445e-10
-1.50199e-10
4.62931e-10
8.82273e-10
2.95777e-10
-1.3052e-09
-2.31232e-09
-7.68072e-10
3.42946e-09
6.16239e-09
2.43886e-09
-8.19757e-09
-1.64143e-08
-9.08939e-09
1.74618e-08
4.32188e-08
3.30337e-08
-2.89517e-08
-1.09371e-07
-1.11584e-07
1.73186e-08
2.40828e-07
3.50491e-07
1.38539e-07
-4.18823e-07
-9.54238e-07
-8.29251e-07
2.92153e-07
2.06423e-06
2.96789e-06
1.56575e-06
-2.60029e-06
-7.62611e-06
-8.64351e-06
-2.66452e-06
1.08441e-05
2.5134e-05
2.63851e-05
7.29199e-06
-3.38068e-05
-7.9083e-05
-8.97335e-05
-4.19484e-05
7.56944e-05
0.000228019
0.000318456
0.000251813
-2.92515e-05
-0.000506964
-0.00101154
-0.00120335
-0.000851064
0.000226958
0.00198627
0.00396739
0.00516866
0.00469198
0.00186347
-0.00382499
-0.012014
-0.0211962
-0.028424
-0.0294721
-0.0227717
-0.00467639
0.0275969
0.0755156
0.138934
0.216042
0.303596
0.397358
0.492667
0.585031
0.670621
0.746616
0.811353
0.864297
0.905872
0.937207
0.959848
0.975504
0.985834
0.992311
0.996145
0.998265
0.999341
0.999825
0.999988
1
1
1
1
1
1
1
1
1
1
1
1
1
1
1
1
1
1
1
1
1
1
1
1
1
1
1
1
1
1
1
1
1
1
1
1
1
1
1
1
0.999998
0.999997
0.999998
1
1.00001
1.00001
1
0.999989
0.999975
0.999974
0.999993
1.00003
1.00008
1.00009
1.00004
0.999924
0.999772
0.999682
0.999749
1.00003
1.00051
1.00101
1.0012
1.00085
0.999772
0.998012
0.996032
0.994832
0.995312
0.998145
1.00384
1.01202
1.0212
1.02842
1.02945
1.02274
1.00462
0.972328
0.92439
0.860957
0.783837
0.696279
0.602519
0.507217
0.414865
0.329289
0.25331
0.188589
0.135659
0.0940961
0.0627716
0.0401379
0.0244874
0.0141606
0.00768605
0.00385386
0.00173448
0.000658415
0.000175109
1.19612e-05
2.24475e-16
2.20493e-16
2.16318e-16
2.08364e-16
1.97513e-16
1.84551e-16
1.70177e-16
1.55011e-16
1.39584e-16
1.24339e-16
1.09629e-16
9.57218e-17
8.28063e-17
7.10018e-17
6.03677e-17
5.09139e-17
4.26116e-17
3.54024e-17
2.92083e-17
2.39383e-17
1.94957e-17
1.57826e-17
1.27042e-17
1.01711e-17
8.1015e-18
6.42166e-18
5.06662e-18
3.97992e-18
3.11316e-18
2.42536e-18
1.88221e-18
1.45525e-18
1.12107e-18
8.60601e-19
6.58379e-19
5.01979e-19
3.81465e-19
2.88934e-19
2.18139e-19
1.64159e-19
1.23141e-19
9.20759e-20
6.86274e-20
5.09866e-20
3.77589e-20
2.7873e-20
2.05091e-20
1.50419e-20
1.09963e-20
8.01259e-21
5.81942e-21
4.2127e-21
3.03957e-21
2.18589e-21
1.56678e-21
1.11929e-21
7.9696e-22
5.65563e-22
4.00014e-22
2.8198e-22
1.9811e-22
1.3872e-22
9.68085e-23
6.73336e-23
4.66759e-23
3.22474e-23
2.22045e-23
1.5238e-23
1.04222e-23
7.10457e-24
4.82683e-24
3.26839e-24
2.20575e-24
1.48365e-24
9.94632e-25
6.64585e-25
4.42588e-25
2.93773e-25
1.94353e-25
1.28157e-25
8.42301e-26
5.51785e-26
3.60292e-26
2.3449e-26
1.52119e-26
9.83647e-27
6.34004e-27
4.07331e-27
2.60862e-27
1.66527e-27
1.05968e-27
6.72185e-28
4.25036e-28
2.67912e-28
1.68343e-28
1.05447e-28
6.58447e-29
4.09877e-29
2.54355e-29
1.57356e-29
9.70488e-30
5.96709e-30
3.65769e-30
2.23525e-30
1.36184e-30
8.272e-31
5.00938e-31
3.02447e-31
1.8206e-31
1.09265e-31
6.5381e-32
3.90062e-32
2.32022e-32
1.37608e-32
8.13732e-33
4.79783e-33
2.82058e-33
1.65336e-33
9.66351e-34
5.63176e-34
3.27265e-34
1.89629e-34
1.09563e-34
6.31219e-35
3.62625e-35
2.0773e-35
1.18662e-35
6.75917e-36
3.8393e-36
2.17465e-36
1.22832e-36
6.91858e-37
3.8861e-37
2.17673e-37
1.21588e-37
6.77296e-38
3.76244e-38
2.08433e-38
1.15153e-38
6.34451e-39
3.48609e-39
1.91029e-39
1.04396e-39
5.68976e-40
3.09268e-40
1.67653e-40
9.06409e-41
4.88739e-41
2.6283e-41
1.40967e-41
7.5407e-42
4.02308e-42
2.14074e-42
1.13613e-42
6.01386e-43
3.17502e-43
1.67189e-43
8.78099e-44
4.59996e-44
2.4035e-44
1.25261e-44
6.51136e-45
3.37611e-45
1.74603e-45
9.00708e-46
4.6346e-46
2.37871e-46
1.2178e-46
6.21893e-47
3.16786e-47
1.60964e-47
8.15846e-48
4.12484e-48
2.08031e-48
1.04658e-48
5.25229e-49
2.62939e-49
1.31309e-49
6.54144e-50
3.25081e-50
1.61158e-50
7.97004e-51
3.93203e-51
1.9352e-51
9.50148e-52
4.65387e-52
2.27404e-52
1.10853e-52
5.39089e-53
2.61544e-53
1.26591e-53
6.11274e-54
2.94474e-54
1.41527e-54
6.78606e-55
3.24625e-55
1.5493e-55
7.37706e-56
3.5045e-56
1.66099e-56
7.85433e-57
3.70558e-57
1.74425e-57
8.19166e-58
3.83837e-58
1.79447e-58
8.37038e-59
3.8956e-59
1.80895e-59
8.38116e-60
3.87446e-60
1.7871e-60
8.22473e-61
3.77686e-61
1.73053e-61
7.91171e-62
3.60916e-62
1.64282e-62
7.46143e-63
3.38149e-63
1.52915e-63
6.89997e-64
3.10675e-64
1.39582e-64
6.25773e-65
2.79945e-65
1.24968e-65
5.56672e-66
2.47443e-66
1.09756e-66
4.85806e-67
2.14576e-67
9.45768e-68
4.15984e-68
1.82582e-68
7.99713e-69
3.49547e-69
1.52467e-69
6.63658e-70
2.88281e-70
1.24967e-70
5.40605e-71
2.33386e-71
1.0055e-71
4.3232e-72
1.85501e-72
7.94337e-73
3.39458e-73
1.44774e-73
6.16202e-74
2.61748e-74
1.10962e-74
4.69462e-75
1.98226e-75
8.35332e-76
3.51316e-76
1.47462e-76
6.17739e-77
2.58272e-77
1.0777e-77
4.48821e-78
1.86552e-78
7.73895e-79
3.20422e-79
1.32411e-79
5.46118e-80
)
;

boundaryField
{
    sides
    {
        type            zeroGradient;
    }
    empty
    {
        type            empty;
    }
}


// ************************************************************************* //
