/*--------------------------------*- C++ -*----------------------------------*\
| =========                 |                                                 |
| \\      /  F ield         | OpenFOAM: The Open Source CFD Toolbox           |
|  \\    /   O peration     | Version:  2312                                  |
|   \\  /    A nd           | Website:  www.openfoam.com                      |
|    \\/     M anipulation  |                                                 |
\*---------------------------------------------------------------------------*/
FoamFile
{
    version     2.0;
    format      ascii;
    arch        "LSB;label=32;scalar=64";
    class       volScalarField;
    location    "4.7";
    object      T;
}
// * * * * * * * * * * * * * * * * * * * * * * * * * * * * * * * * * * * * * //

dimensions      [0 0 0 1 0 0 0];

internalField   nonuniform List<scalar> 
1000
(
0
0
0
0
0
0
0
0
0
0
0
0
0
0
0
0
0
0
0
0
0
0
0
0
0
0
0
0
0
0
0
0
0
0
0
0
0
0
0
0
0
0
0
0
0
0
0
0
0
0
0
0
0
0
0
0
0
0
0
0
0
0
0
0
0
0
0
0
0
0
0
0
0
0
0
0
0
0
0
0
0
0
0
0
0
0
0
0
0
0
0
0
0
0
0
0
0
0
0
0
0
0
0
0
0
0
0
0
0
0
0
0
0
0
0
0
0
0
0
0
0
0
0
0
0
0
0
0
0
0
0
0
0
0
0
0
0
0
0
0
0
0
0
0
0
0
0
0
0
0
0
0
0
0
0
0
0
0
0
0
0
0
0
0
0
0
0
0
0
0
0
0
0
0
0
0
0
0
0
0
0
0
0
0
0
0
0
0
0
0
0
0
0
0
0
0
0
0
0
0
0
0
0
0
0
0
0
0
0
0
0
0
0
0
0
0
0
0
0
0
0
0
0
0
0
0
0
0
0
0
0
0
0
0
0
0
0
0
0
0
0
0
0
0
0
0
0
0
0
0
0
0
0
0
0
0
0
0
0
0
0
0
0
0
0
0
0
0
0
0
0
0
0
0
0
0
0
0
0
0
0
0
0
0
0
0
0
0
0
0
0
0
0
0
0
0
0
0
0
0
0
0
0
0
0
0
0
0
0
0
0
0
0
0
0
0
0
0
0
0
0
0
0
0
0
0
0
0
0
0
0
0
0
0
0
0
0
0
0
0
0
0
0
0
0
0
0
0
0
0
0
0
0
0
0
0
0
0
0
0
0
0
0
0
0
0
0
0
0
0
0
0
0
0
0
0
0
0
0
0
0
0
0
0
0
0
0
0
0
0
0
0
0
0
0
0
0
0
0
0
0
0
0
0
0
0
0
0
0
0
0
0
0
0
0
0
0
0
0
0
0
0
0
0
0
0
0
0
0
0
0
0
0
0
0
0
0
0
0
0
0
0
0
0
0
0
0
0
0
0
6.15653e-135
1.84752e-132
2.77273e-130
2.77481e-128
2.08313e-126
1.25137e-124
6.2657e-123
2.6897e-121
1.01052e-119
3.37541e-118
1.01496e-116
2.77508e-115
6.95681e-114
1.6102e-112
3.46147e-111
6.94665e-110
1.30725e-108
2.31584e-107
3.87554e-106
6.1457e-105
9.26042e-104
1.32922e-102
1.82162e-101
2.38842e-100
3.00176e-99
3.62251e-98
4.20443e-97
4.70013e-96
5.06776e-95
5.27691e-94
5.31271e-93
5.17737e-92
4.8889e-91
4.4776e-90
3.98119e-89
3.43943e-88
2.88951e-87
2.36243e-86
1.88109e-85
1.45974e-84
1.1047e-83
8.158e-83
5.88242e-82
4.14388e-81
2.85345e-80
1.92163e-79
1.26626e-78
8.16833e-78
5.16056e-77
3.1945e-76
1.93835e-75
1.15334e-74
6.73208e-74
3.85625e-73
2.1685e-72
1.19752e-71
6.49648e-71
3.46325e-70
1.81483e-69
9.35101e-69
4.73893e-68
2.36277e-67
1.15931e-66
5.59917e-66
2.66261e-65
1.24697e-64
5.75269e-64
2.61489e-63
1.17138e-62
5.17251e-62
2.25192e-61
9.66814e-61
4.09408e-60
1.71032e-59
7.04997e-59
2.86791e-58
1.15157e-57
4.56494e-57
1.78679e-56
6.90684e-56
2.63706e-55
9.94634e-55
3.7066e-54
1.36497e-53
4.96784e-53
1.78719e-52
6.35612e-52
2.23507e-51
7.77188e-51
2.67271e-50
9.09126e-50
3.05911e-49
1.0184e-48
3.35465e-48
1.09353e-47
3.52788e-47
1.12655e-46
3.5611e-46
1.11446e-45
3.45329e-45
1.05959e-44
3.21972e-44
9.6899e-44
2.88857e-43
8.53004e-43
2.49552e-42
7.23362e-42
2.07764e-41
5.91352e-41
1.66809e-40
4.66363e-40
1.29241e-39
3.55042e-39
9.66938e-39
2.61091e-38
6.99025e-38
1.85581e-37
4.88591e-37
1.27574e-36
3.30381e-36
8.48661e-36
2.16247e-35
5.46627e-35
1.37084e-34
3.4109e-34
8.42098e-34
2.06299e-33
5.01532e-33
1.21003e-32
2.89744e-32
6.88623e-32
1.62451e-31
3.80417e-31
8.84348e-31
2.04096e-30
4.67648e-30
1.0639e-29
2.40327e-29
5.39073e-29
1.20077e-28
2.6562e-28
5.83545e-28
1.27327e-27
2.75944e-27
5.94018e-27
1.27021e-26
2.69816e-26
5.69378e-26
1.19369e-25
2.48635e-25
5.14556e-25
1.05808e-24
2.16194e-24
4.3896e-24
8.85689e-24
1.77595e-23
3.53909e-23
7.00943e-23
1.37982e-22
2.69975e-22
5.25061e-22
1.01507e-21
1.95073e-21
3.72676e-21
7.07808e-21
1.33649e-20
2.50899e-20
4.68305e-20
8.69107e-20
1.60379e-19
2.94283e-19
5.36963e-19
9.74312e-19
1.75809e-18
3.15494e-18
5.63065e-18
9.99448e-18
1.76445e-17
3.09828e-17
5.41139e-17
9.40127e-17
1.62468e-16
2.79296e-16
4.77632e-16
8.12578e-16
1.37529e-15
2.31575e-15
3.87947e-15
6.46618e-15
1.07234e-14
1.76944e-14
2.90517e-14
4.74627e-14
7.71597e-14
1.24824e-13
2.00948e-13
3.21932e-13
5.13273e-13
8.1442e-13
1.2861e-12
2.02135e-12
3.16196e-12
4.92303e-12
7.62922e-12
1.17682e-11
1.80691e-11
2.76162e-11
4.20154e-11
6.36324e-11
9.59367e-11
1.43992e-10
2.15153e-10
3.20054e-10
4.74e-10
6.98908e-10
1.02603e-09
1.4997e-09
2.18258e-09
3.16272e-09
4.56339e-09
6.55635e-09
9.37977e-09
1.33625e-08
1.89565e-08
2.67802e-08
3.76758e-08
5.27855e-08
7.3651e-08
1.02344e-07
1.41638e-07
1.95225e-07
2.68003e-07
3.66438e-07
4.99032e-07
6.76911e-07
9.14574e-07
1.23083e-06
1.64999e-06
2.20329e-06
2.93078e-06
3.88348e-06
5.1262e-06
6.74084e-06
8.83052e-06
1.15244e-05
1.49839e-05
1.94091e-05
2.50481e-05
3.22062e-05
4.1258e-05
5.26609e-05
6.69713e-05
8.4863e-05
0.000107148
0.000134802
0.00016899
0.0002111
0.000262777
0.000325959
0.000402926
0.000496345
0.000609319
0.000745448
0.000908888
0.00110441
0.00133749
0.00161434
0.00194201
0.00232847
0.00278266
0.00331458
0.00393537
0.00465734
0.00549409
0.00646052
0.00757289
0.00884885
0.0103075
0.0119692
0.013856
0.0159911
0.0183991
0.0211056
0.0241377
0.0275232
0.0312907
0.0354696
0.0400896
0.0451804
0.0507718
0.0568931
0.0635728
0.0708384
0.0787157
0.087229
0.0964003
0.106249
0.116792
0.128042
0.140009
0.152698
0.166112
0.180248
0.195097
0.210649
0.226886
0.243786
0.261323
0.279465
0.298176
0.317415
0.337138
0.357296
0.377836
0.398705
0.419843
0.441191
0.462687
0.484269
0.505873
0.527435
0.548894
0.570188
0.591256
0.612041
0.632488
0.652544
0.67216
0.691292
0.709899
0.727943
0.745393
0.76222
0.778401
0.793918
0.808755
0.822904
0.836359
0.849119
0.861186
0.872566
0.88327
0.893309
0.9027
0.911459
0.919608
0.927168
0.934162
0.940616
0.946553
0.952
0.956984
0.96153
0.965664
0.969412
0.972798
0.975847
0.978581
0.981021
0.983189
0.985103
0.986781
0.988238
0.989489
0.990544
0.991416
0.992112
0.992639
0.993002
0.993202
0.993241
0.993116
0.992825
0.99236
0.991716
0.99088
0.989842
0.988587
0.987099
0.985361
0.983352
0.981052
0.978436
0.97548
0.972159
0.968446
0.964312
0.95973
0.954671
0.949106
0.943007
0.936345
0.929095
0.92123
0.912727
0.903564
0.893722
0.883185
0.871939
0.859976
0.84729
0.833878
0.819745
0.804896
0.789346
0.77311
0.756211
0.738675
0.720533
0.701823
0.682584
0.662861
0.642704
0.622163
0.601295
0.580157
0.558809
0.537312
0.515731
0.494127
0.472564
0.451106
0.429812
0.408744
0.387959
0.367512
0.347456
0.32784
0.308708
0.290101
0.272056
0.254607
0.23778
0.221598
0.206082
0.191244
0.177094
0.163639
0.150879
0.138811
0.12743
0.116725
0.106684
0.0972916
0.0885292
0.0803769
0.0728125
0.0658126
0.0593522
0.0534058
0.047947
0.0429491
0.0383853
0.0342289
0.0304534
0.027033
0.0239422
0.0211567
0.0186528
0.0164078
0.0144002
0.0126095
0.0110163
0.00960257
0.00835118
0.00724635
0.00627337
0.00541868
0.0046698
0.00401527
0.00344464
0.00294839
0.00251791
0.00214541
0.00182388
0.00154702
0.00130923
0.00110548
0.000931336
0.000782855
0.000656565
0.00054941
0.00045871
0.000382125
0.000317613
0.000263401
0.000217955
0.000179947
0.000148237
0.000121842
9.99253e-05
8.1769e-05
6.67635e-05
5.43911e-05
4.42138e-05
3.58616e-05
2.90231e-05
2.34371e-05
1.88848e-05
1.51834e-05
1.21807e-05
9.7506e-06
7.78829e-06
6.20739e-06
4.93665e-06
3.91755e-06
3.10211e-06
2.4511e-06
1.93255e-06
1.52043e-06
1.19362e-06
9.35058e-07
7.30939e-07
5.70159e-07
4.43799e-07
3.44709e-07
2.67176e-07
2.06644e-07
1.59489e-07
1.22835e-07
9.44058e-08
7.24041e-08
5.54137e-08
4.23216e-08
3.22552e-08
2.4532e-08
1.86193e-08
1.41024e-08
1.06591e-08
8.03992e-09
6.05184e-09
4.54599e-09
3.40783e-09
2.5494e-09
1.9033e-09
1.41805e-09
1.05437e-09
7.82364e-10
5.79355e-10
4.28155e-10
3.15777e-10
2.32426e-10
1.70732e-10
1.25162e-10
9.15717e-11
6.68624e-11
4.87232e-11
3.54344e-11
2.57189e-11
1.86303e-11
)
;

boundaryField
{
    sides
    {
        type            zeroGradient;
    }
    empty
    {
        type            empty;
    }
}


// ************************************************************************* //
