/*--------------------------------*- C++ -*----------------------------------*\
| =========                 |                                                 |
| \\      /  F ield         | OpenFOAM: The Open Source CFD Toolbox           |
|  \\    /   O peration     | Version:  2312                                  |
|   \\  /    A nd           | Website:  www.openfoam.com                      |
|    \\/     M anipulation  |                                                 |
\*---------------------------------------------------------------------------*/
FoamFile
{
    version     2.0;
    format      ascii;
    arch        "LSB;label=32;scalar=64";
    class       volScalarField;
    location    "0.4";
    object      T;
}
// * * * * * * * * * * * * * * * * * * * * * * * * * * * * * * * * * * * * * //

dimensions      [0 0 0 1 0 0 0];

internalField   nonuniform List<scalar> 
1000
(
0
0
0
0
0
0
0
0
0
0
0
0
0
0
0
0
0
0
0
0
0
0
0
0
0
0
0
0
0
0
0
0
0
0
0
0
0
0
0
0
0
0
0
0
0
0
0
0
0
0
0
0
0
0
0
0
0
0
0
0
0
0
0
0
0
0
0
0
0
0
0
0
0
0
0
0
0
0
0
0
0
0
0
0
0
0
0
0
0
0
0
0
0
0
0
0
0
0
0
0
0
0
0
0
0
0
0
0
0
0
0
0
0
0
0
0
0
0
0
0
0
0
0
0
0
0
0
0
0
0
0
0
0
0
0
0
0
0
0
0
0
0
0
0
0
0
0
0
0
0
0
0
0
0
0
0
0
0
0
0
0
0
0
0
0
0
0
0
0
0
0
0
0
0
0
0
0
0
0
0
0
0
0
0
0
0
0
0
0
0
0
0
0
0
0
0
0
0
0
0
0
0
0
0
0
0
0
0
0
0
0
0
0
0
0
0
0
0
0
0
0
0
0
0
0
0
0
0
0
0
0
0
0
0
0
0
0
0
0
0
0
0
0
0
0
0
0
0
0
0
0
0
0
0
0
0
0
0
0
0
0
0
0
0
0
0
0
0
0
0
0
0
0
0
0
0
0
0
0
0
0
0
0
0
0
0
0
0
0
0
0
0
0
0
0
0
0
0
0
0
0
0
0
0
0
0
0
0
0
0
0
0
0
0
0
0
0
0
0
0
0
0
0
0
0
0
0
0
0
0
0
0
0
0
0
0
0
0
0
0
0
0
0
0
0
0
0
0
0
0
0
0
0
0
0
0
0
0
0
0
0
0
0
0
0
0
0
0
0
0
0
0
0
0
0
0
0
0
0
0
0
0
0
0
0
0
0
0
0
0
0
0
0
0
0
0
0
0
0
0
0
0
0
0
0
0
0
0
0
0
0
0
0
0
0
0
0
0
0
0
0
0
0
0
0
0
0
0
0
0
0
0
0
0
0
0
0
0
0
0
0
0
0
0
0
0
0
0
0
0
3.78282e-12
1.00073e-10
1.32865e-09
1.1805e-08
7.89729e-08
4.24338e-07
1.90784e-06
7.3833e-06
2.51101e-05
7.62492e-05
0.00020935
0.000525053
0.00121314
0.00260087
0.00520601
0.00978158
0.0173339
0.0290945
0.0464324
0.0707055
0.103066
0.144252
0.194407
0.252968
0.318649
0.389536
0.463275
0.537311
0.609159
0.676638
0.738044
0.792247
0.838705
0.877406
0.908771
0.933521
0.952552
0.966823
0.977267
0.984731
0.989944
0.993504
0.995883
0.997439
0.998436
0.999062
0.999447
0.99968
0.999818
0.999898
0.999944
0.99997
0.999984
0.999991
0.999996
0.999998
0.999999
0.999999
1
1
1
1
1
1
1
1
1
1
1
1
1
1
1
1
1
1
1
1
1
1
1
1
1
1
1
1
1
1
1
1
1
1
1
1
1
1
1
1
1
1
1
1
1
1
1
1
0.999998
0.999993
0.999975
0.999924
0.999791
0.999475
0.998787
0.997399
0.994794
0.990218
0.982666
0.970906
0.953568
0.929294
0.896934
0.855748
0.805593
0.747032
0.681351
0.610464
0.536725
0.462689
0.390841
0.323362
0.261956
0.207753
0.161295
0.122594
0.0912286
0.0664787
0.0474476
0.0331766
0.0227329
0.0152689
0.0100559
0.00649587
0.0041171
0.0025611
0.00156417
0.000938212
0.000552867
0.000320169
0.00018227
0.000102037
5.61875e-05
3.04433e-05
1.62344e-05
8.52313e-06
4.40654e-06
2.24414e-06
1.12609e-06
5.56894e-07
2.71495e-07
1.3051e-07
6.18763e-08
2.89402e-08
1.3356e-08
6.08329e-09
2.73518e-09
1.21425e-09
5.32343e-10
2.30528e-10
9.86252e-11
4.16933e-11
1.74196e-11
7.19416e-12
2.93744e-12
1.18598e-12
4.73565e-13
1.87044e-13
7.30869e-14
2.82575e-14
1.08116e-14
4.09426e-15
1.53479e-15
5.69605e-16
2.09319e-16
7.61747e-17
2.7456e-17
9.80269e-18
3.46727e-18
1.21511e-18
4.21975e-19
1.45227e-19
4.95389e-20
1.67508e-20
5.61514e-21
1.86625e-21
6.15044e-22
2.0101e-22
6.51545e-23
2.09475e-23
6.68071e-24
2.11376e-24
6.63551e-25
2.06688e-25
6.3888e-26
1.95985e-26
5.96714e-27
1.80336e-27
5.41016e-28
1.61132e-28
4.76471e-29
1.39896e-29
4.07869e-30
1.18091e-30
3.39569e-31
9.69799e-32
2.75113e-32
7.75261e-33
2.1703e-33
6.03612e-34
1.66798e-34
4.57979e-35
1.24955e-35
3.38796e-36
9.12911e-37
2.44485e-37
6.50779e-38
1.72187e-38
4.52871e-39
1.18409e-39
3.07789e-40
7.95437e-41
2.04393e-41
5.22221e-42
1.32678e-42
3.35209e-43
8.42235e-44
2.10461e-44
5.23059e-45
1.29298e-45
3.17922e-46
7.77594e-47
1.89195e-47
4.57945e-48
1.10276e-48
2.64201e-49
6.29784e-50
1.49373e-50
3.52528e-51
8.27895e-52
1.9348e-52
4.49978e-53
1.04151e-53
2.39918e-54
5.50063e-55
1.25524e-55
2.85118e-56
6.44644e-57
1.45088e-57
3.25066e-58
7.25035e-59
1.60994e-59
3.55907e-60
7.83353e-61
1.71667e-61
3.74574e-62
8.13817e-63
1.76063e-63
3.79293e-64
8.13695e-65
1.73837e-65
3.69856e-66
7.83688e-67
1.65382e-67
3.47602e-68
7.27675e-69
1.51728e-69
3.15124e-70
6.51925e-71
1.34346e-71
2.75789e-72
5.6398e-73
1.14895e-73
2.33183e-74
4.71482e-75
9.49768e-76
1.90618e-76
3.8117e-77
7.59434e-78
1.50761e-78
2.98215e-79
5.87786e-80
1.15444e-80
2.2594e-81
4.40656e-82
8.5644e-83
1.65881e-83
3.20193e-84
6.15954e-85
1.18091e-85
2.25647e-86
4.29729e-87
8.15682e-88
1.54319e-88
2.91003e-89
5.46974e-90
1.02479e-90
1.91387e-91
3.56292e-92
6.6119e-93
1.22315e-93
2.2557e-94
4.14698e-95
7.60055e-96
1.38876e-96
2.5298e-97
4.59445e-98
8.31904e-99
1.50181e-99
2.70315e-100
4.85111e-101
8.68038e-102
1.54871e-102
2.75515e-103
4.88729e-104
8.64467e-105
1.52473e-105
2.6817e-106
4.70334e-107
8.22601e-108
1.43472e-108
2.49542e-109
4.32842e-110
7.48738e-111
1.29167e-111
2.22231e-112
3.81322e-113
6.52562e-114
1.11378e-114
1.89599e-115
3.21909e-116
5.45128e-117
9.20746e-118
1.55118e-118
2.6066e-119
4.36898e-120
7.30442e-121
1.21814e-121
2.02639e-122
3.36255e-123
5.56593e-124
9.19047e-125
1.51382e-125
2.48745e-126
4.07738e-127
6.6675e-128
1.08769e-128
1.77016e-129
2.87402e-130
4.65526e-131
7.52282e-132
1.21284e-132
1.95084e-133
3.13067e-134
5.01252e-135
8.00726e-136
1.27622e-136
2.02949e-137
3.22012e-138
5.09785e-139
8.05262e-140
1.26919e-140
1.996e-141
3.13215e-142
4.90434e-143
7.66262e-144
1.19464e-144
1.85852e-145
2.88517e-146
4.46943e-147
6.90902e-148
1.06578e-148
1.64063e-149
2.5203e-150
3.86361e-151
5.91073e-152
9.02398e-153
1.3749e-153
2.09055e-154
3.1723e-155
4.80414e-156
7.26086e-157
1.09521e-157
1.64872e-158
2.47708e-159
3.71434e-160
5.55874e-161
8.30285e-162
1.23777e-162
1.84169e-163
2.73503e-164
4.05396e-165
5.99756e-166
8.85625e-167
1.3053e-167
1.92025e-168
2.81966e-169
4.13269e-170
6.046e-171
8.82891e-172
1.28692e-172
1.87244e-173
2.71944e-174
3.94246e-175
5.70529e-176
8.24163e-177
1.18844e-177
1.7107e-178
2.45813e-179
3.52594e-180
5.0488e-181
7.21684e-182
1.02981e-182
1.46696e-183
2.0861e-184
2.9615e-185
4.19711e-186
5.93822e-187
8.38747e-188
1.18271e-188
1.66495e-189
2.33993e-190
3.28312e-191
4.59891e-192
6.4315e-193
8.97967e-194
1.25171e-194
1.74198e-195
2.42039e-196
3.3576e-197
4.6503e-198
6.43045e-199
8.87799e-200
1.22378e-200
1.68426e-201
2.3144e-202
3.17534e-203
4.3498e-204
5.94947e-205
8.12494e-206
1.10789e-206
1.50839e-207
2.05054e-208
2.78336e-209
3.77238e-210
5.10519e-211
6.89857e-212
9.3081e-213
1.25407e-213
1.6871e-214
2.26632e-215
3.03996e-216
4.07176e-217
5.44587e-218
7.27319e-219
9.69969e-220
1.29172e-220
1.71775e-221
2.28104e-222
3.02477e-223
4.00535e-224
5.29636e-225
6.99371e-226
9.22217e-227
1.21438e-227
1.5969e-228
2.09703e-229
2.75001e-230
3.60139e-231
4.70996e-232
6.15141e-233
8.02317e-234
1.04504e-234
1.35938e-235
1.76591e-236
2.29096e-237
2.9682e-238
3.84058e-239
4.96283e-240
6.40463e-241
8.25454e-242
1.0625e-242
1.36584e-243
1.75354e-244
2.24839e-245
2.8792e-246
3.68231e-247
4.70345e-248
6.00019e-249
7.6448e-250
9.72797e-251
1.23633e-251
1.56931e-252
1.98949e-253
2.51907e-254
3.18568e-255
4.02376e-256
5.07611e-257
6.39589e-258
8.04904e-259
1.01172e-259
1.27016e-260
1.59269e-261
1.99474e-262
2.49531e-263
3.11779e-264
3.89095e-265
4.85012e-266
6.03865e-267
7.50964e-268
9.32808e-269
1.15734e-269
1.43426e-270
1.77539e-271
2.19513e-272
2.711e-273
3.34429e-274
4.12082e-275
5.07193e-276
6.2355e-277
7.65741e-278
9.39303e-279
1.15092e-279
1.40864e-280
1.72216e-281
2.10314e-282
2.56557e-283
3.12625e-284
3.80529e-285
4.62679e-286
5.61952e-287
6.81788e-288
8.26288e-289
1.00034e-289
1.20975e-290
1.46145e-291
1.76363e-292
2.12604e-293
2.56022e-294
3.07983e-295
3.701e-296
4.44281e-297
)
;

boundaryField
{
    sides
    {
        type            zeroGradient;
    }
    empty
    {
        type            empty;
    }
}


// ************************************************************************* //
