/*--------------------------------*- C++ -*----------------------------------*\
| =========                 |                                                 |
| \\      /  F ield         | OpenFOAM: The Open Source CFD Toolbox           |
|  \\    /   O peration     | Version:  2312                                  |
|   \\  /    A nd           | Website:  www.openfoam.com                      |
|    \\/     M anipulation  |                                                 |
\*---------------------------------------------------------------------------*/
FoamFile
{
    version     2.0;
    format      ascii;
    arch        "LSB;label=32;scalar=64";
    class       volScalarField;
    location    "3.1";
    object      T;
}
// * * * * * * * * * * * * * * * * * * * * * * * * * * * * * * * * * * * * * //

dimensions      [0 0 0 1 0 0 0];

internalField   nonuniform List<scalar> 
1000
(
1.18582e-08
1.18944e-08
1.19943e-08
1.21583e-08
1.23872e-08
1.2682e-08
1.30442e-08
1.34754e-08
1.39778e-08
1.45535e-08
1.52054e-08
1.59365e-08
1.67502e-08
1.76502e-08
1.86409e-08
1.97267e-08
2.09127e-08
2.22043e-08
2.36076e-08
2.51288e-08
2.6775e-08
2.85536e-08
3.04727e-08
3.25409e-08
3.47676e-08
3.71628e-08
3.9737e-08
4.25018e-08
4.54694e-08
4.86528e-08
5.2066e-08
5.5724e-08
5.96426e-08
6.38388e-08
6.83307e-08
7.31376e-08
7.82799e-08
8.37795e-08
8.96597e-08
9.59452e-08
1.02662e-07
1.09839e-07
1.17505e-07
1.25693e-07
1.34435e-07
1.43767e-07
1.53728e-07
1.64358e-07
1.75699e-07
1.87797e-07
2.007e-07
2.14459e-07
2.29129e-07
2.44768e-07
2.61435e-07
2.79197e-07
2.98121e-07
3.1828e-07
3.39752e-07
3.62619e-07
3.86966e-07
4.12885e-07
4.40474e-07
4.69835e-07
5.01077e-07
5.34315e-07
5.6967e-07
6.07273e-07
6.47259e-07
6.89772e-07
7.34966e-07
7.83e-07
8.34045e-07
8.88283e-07
9.45902e-07
1.0071e-06
1.0721e-06
1.14112e-06
1.21439e-06
1.29217e-06
1.37473e-06
1.46233e-06
1.55527e-06
1.65387e-06
1.75845e-06
1.86935e-06
1.98694e-06
2.11161e-06
2.24375e-06
2.3838e-06
2.53219e-06
2.68942e-06
2.85597e-06
3.03236e-06
3.21916e-06
3.41693e-06
3.62631e-06
3.84792e-06
4.08245e-06
4.3306e-06
4.59314e-06
4.87084e-06
5.16455e-06
5.47512e-06
5.80348e-06
6.15058e-06
6.51745e-06
6.90514e-06
7.31478e-06
7.74752e-06
8.20461e-06
8.68733e-06
9.19705e-06
9.73518e-06
1.03032e-05
1.09027e-05
1.15354e-05
1.22028e-05
1.29069e-05
1.36496e-05
1.44327e-05
1.52585e-05
1.6129e-05
1.70466e-05
1.80137e-05
1.90327e-05
2.01062e-05
2.12371e-05
2.24281e-05
2.36823e-05
2.50028e-05
2.63929e-05
2.7856e-05
2.93958e-05
3.10159e-05
3.27203e-05
3.45131e-05
3.63985e-05
3.83811e-05
4.04655e-05
4.26566e-05
4.49594e-05
4.73793e-05
4.99219e-05
5.25929e-05
5.53983e-05
5.83444e-05
6.14379e-05
6.46855e-05
6.80944e-05
7.1672e-05
7.5426e-05
7.93646e-05
8.34961e-05
8.78292e-05
9.23732e-05
9.71374e-05
0.000102132
0.000107367
0.000112853
0.000118601
0.000124623
0.000130931
0.000137537
0.000144454
0.000151697
0.000159278
0.000167212
0.000175515
0.000184203
0.000193291
0.000202796
0.000212737
0.000223131
0.000233997
0.000245356
0.000257226
0.00026963
0.000282589
0.000296125
0.000310264
0.000325027
0.000340442
0.000356534
0.000373329
0.000390857
0.000409145
0.000428224
0.000448125
0.00046888
0.000490521
0.000513084
0.000536603
0.000561116
0.000586659
0.000613272
0.000640995
0.00066987
0.00069994
0.00073125
0.000763844
0.00079777
0.000833077
0.000869816
0.000908037
0.000947795
0.000989144
0.00103214
0.00107684
0.00112331
0.00117161
0.0012218
0.00127395
0.00132813
0.00138439
0.00144283
0.0015035
0.0015665
0.00163188
0.00169974
0.00177015
0.0018432
0.00191898
0.00199757
0.00207906
0.00216356
0.00225115
0.00234194
0.00243602
0.0025335
0.00263449
0.00273909
0.00284741
0.00295957
0.00307569
0.00319589
0.00332029
0.00344901
0.00358218
0.00371994
0.00386241
0.00400974
0.00416207
0.00431954
0.00448229
0.00465049
0.00482427
0.00500379
0.00518922
0.00538072
0.00557844
0.00578257
0.00599328
0.00621073
0.00643512
0.00666661
0.0069054
0.00715168
0.00740563
0.00766746
0.00793736
0.00821554
0.0085022
0.00879755
0.00910181
0.00941518
0.0097379
0.0100702
0.0104122
0.0107643
0.0111267
0.0114995
0.011883
0.0122776
0.0126833
0.0131005
0.0135294
0.0139703
0.0144234
0.014889
0.0153673
0.0158587
0.0163633
0.0168815
0.0174135
0.0179597
0.0185202
0.0190954
0.0196856
0.020291
0.0209119
0.0215486
0.0222014
0.0228707
0.0235566
0.0242595
0.0249797
0.0257175
0.0264732
0.027247
0.0280394
0.0288505
0.0296808
0.0305304
0.0313998
0.0322891
0.0331987
0.034129
0.0350801
0.0360525
0.0370463
0.038062
0.0390998
0.04016
0.0412428
0.0423487
0.0434778
0.0446305
0.045807
0.0470077
0.0482327
0.0494825
0.0507572
0.0520571
0.0533825
0.0547336
0.0561107
0.0575141
0.0589439
0.0604005
0.061884
0.0633948
0.0649329
0.0664986
0.0680922
0.0697137
0.0713635
0.0730417
0.0747485
0.076484
0.0782484
0.0800419
0.0818646
0.0837166
0.085598
0.087509
0.0894497
0.0914202
0.0934204
0.0954506
0.0975108
0.099601
0.101721
0.103872
0.106052
0.108262
0.110503
0.112774
0.115074
0.117405
0.119765
0.122155
0.124575
0.127025
0.129503
0.132012
0.134549
0.137115
0.139711
0.142334
0.144986
0.147667
0.150375
0.15311
0.155873
0.158663
0.16148
0.164323
0.167192
0.170087
0.173007
0.175952
0.178921
0.181914
0.184931
0.187971
0.191033
0.194117
0.197223
0.20035
0.203497
0.206664
0.20985
0.213055
0.216278
0.219518
0.222775
0.226047
0.229335
0.232638
0.235954
0.239284
0.242626
0.245979
0.249343
0.252717
0.2561
0.259492
0.26289
0.266296
0.269707
0.273122
0.276542
0.279964
0.283389
0.286814
0.29024
0.293664
0.297087
0.300507
0.303923
0.307334
0.31074
0.314138
0.317529
0.32091
0.324281
0.327642
0.33099
0.334325
0.337645
0.34095
0.344239
0.34751
0.350762
0.353995
0.357207
0.360396
0.363563
0.366706
0.369823
0.372915
0.375978
0.379014
0.382019
0.384994
0.387938
0.390848
0.393725
0.396567
0.399373
0.402141
0.404872
0.407564
0.410215
0.412826
0.415394
0.41792
0.420401
0.422838
0.425228
0.427572
0.429868
0.432115
0.434312
0.43646
0.438556
0.4406
0.442591
0.444528
0.446411
0.448238
0.45001
0.451725
0.453382
0.454982
0.456522
0.458004
0.459425
0.460786
0.462086
0.463324
0.4645
0.465614
0.466664
0.467651
0.468574
0.469432
0.470226
0.470955
0.471619
0.472217
0.472749
0.473216
0.473616
0.473949
0.474216
0.474417
0.47455
0.474617
0.474617
0.47455
0.474417
0.474216
0.473949
0.473616
0.473216
0.472749
0.472217
0.471619
0.470955
0.470226
0.469432
0.468574
0.467651
0.466664
0.465614
0.4645
0.463324
0.462086
0.460786
0.459425
0.458004
0.456522
0.454982
0.453382
0.451725
0.45001
0.448238
0.446411
0.444528
0.442591
0.4406
0.438556
0.43646
0.434312
0.432115
0.429868
0.427572
0.425228
0.422838
0.420401
0.41792
0.415394
0.412826
0.410215
0.407564
0.404872
0.402141
0.399373
0.396567
0.393725
0.390848
0.387938
0.384994
0.382019
0.379014
0.375978
0.372915
0.369823
0.366706
0.363563
0.360396
0.357207
0.353995
0.350762
0.34751
0.344239
0.34095
0.337645
0.334325
0.33099
0.327642
0.324281
0.32091
0.317529
0.314138
0.31074
0.307334
0.303923
0.300507
0.297087
0.293664
0.29024
0.286814
0.283389
0.279964
0.276542
0.273122
0.269707
0.266296
0.26289
0.259492
0.2561
0.252717
0.249343
0.245979
0.242626
0.239284
0.235954
0.232638
0.229335
0.226047
0.222775
0.219518
0.216278
0.213055
0.20985
0.206664
0.203497
0.20035
0.197223
0.194117
0.191033
0.187971
0.184931
0.181914
0.178921
0.175952
0.173007
0.170087
0.167192
0.164323
0.16148
0.158663
0.155873
0.15311
0.150375
0.147667
0.144986
0.142334
0.139711
0.137115
0.134549
0.132012
0.129503
0.127025
0.124575
0.122155
0.119765
0.117405
0.115074
0.112774
0.110503
0.108262
0.106052
0.103872
0.101721
0.099601
0.0975108
0.0954506
0.0934204
0.0914202
0.0894497
0.087509
0.085598
0.0837166
0.0818646
0.0800419
0.0782484
0.076484
0.0747485
0.0730417
0.0713635
0.0697137
0.0680922
0.0664986
0.0649329
0.0633948
0.061884
0.0604005
0.0589439
0.0575141
0.0561107
0.0547336
0.0533825
0.0520571
0.0507572
0.0494825
0.0482327
0.0470077
0.045807
0.0446305
0.0434778
0.0423487
0.0412428
0.04016
0.0390998
0.038062
0.0370463
0.0360525
0.0350801
0.034129
0.0331987
0.0322891
0.0313998
0.0305304
0.0296808
0.0288505
0.0280394
0.027247
0.0264732
0.0257175
0.0249797
0.0242595
0.0235566
0.0228707
0.0222014
0.0215486
0.0209119
0.020291
0.0196856
0.0190954
0.0185202
0.0179597
0.0174135
0.0168815
0.0163633
0.0158587
0.0153673
0.014889
0.0144234
0.0139703
0.0135294
0.0131005
0.0126833
0.0122776
0.011883
0.0114995
0.0111267
0.0107643
0.0104122
0.0100702
0.0097379
0.00941518
0.00910181
0.00879755
0.0085022
0.00821554
0.00793736
0.00766746
0.00740563
0.00715168
0.0069054
0.00666661
0.00643512
0.00621073
0.00599328
0.00578257
0.00557844
0.00538072
0.00518922
0.00500379
0.00482427
0.00465049
0.00448229
0.00431954
0.00416207
0.00400974
0.00386241
0.00371994
0.00358218
0.00344901
0.00332029
0.00319589
0.00307569
0.00295957
0.00284741
0.00273909
0.00263449
0.0025335
0.00243602
0.00234194
0.00225115
0.00216356
0.00207906
0.00199757
0.00191898
0.0018432
0.00177015
0.00169974
0.00163188
0.0015665
0.0015035
0.00144283
0.00138439
0.00132813
0.00127395
0.0012218
0.00117161
0.00112331
0.00107684
0.00103214
0.000989144
0.000947795
0.000908037
0.000869816
0.000833077
0.00079777
0.000763844
0.00073125
0.00069994
0.00066987
0.000640995
0.000613272
0.000586659
0.000561116
0.000536603
0.000513084
0.000490521
0.00046888
0.000448125
0.000428224
0.000409145
0.000390857
0.000373329
0.000356534
0.000340442
0.000325027
0.000310264
0.000296125
0.000282589
0.00026963
0.000257226
0.000245356
0.000233997
0.000223131
0.000212737
0.000202796
0.000193291
0.000184203
0.000175515
0.000167212
0.000159278
0.000151697
0.000144454
0.000137537
0.000130931
0.000124623
0.000118601
0.000112853
0.000107367
0.000102132
9.71374e-05
9.23732e-05
8.78292e-05
8.34961e-05
7.93646e-05
7.5426e-05
7.1672e-05
6.80944e-05
6.46855e-05
6.14379e-05
5.83444e-05
5.53983e-05
5.25929e-05
4.99219e-05
4.73793e-05
4.49594e-05
4.26566e-05
4.04655e-05
3.83811e-05
3.63985e-05
3.45131e-05
3.27203e-05
3.10159e-05
2.93958e-05
2.7856e-05
2.63929e-05
2.50028e-05
2.36823e-05
2.24281e-05
2.12371e-05
2.01062e-05
1.90327e-05
1.80137e-05
1.70466e-05
1.6129e-05
1.52585e-05
1.44327e-05
1.36496e-05
1.29069e-05
1.22028e-05
1.15354e-05
1.09027e-05
1.03032e-05
9.73518e-06
9.19705e-06
8.68733e-06
8.20461e-06
7.74752e-06
7.31478e-06
6.90514e-06
6.51745e-06
6.15058e-06
5.80348e-06
5.47512e-06
5.16455e-06
4.87084e-06
4.59314e-06
4.3306e-06
4.08245e-06
3.84792e-06
3.62631e-06
3.41693e-06
3.21916e-06
3.03236e-06
2.85597e-06
2.68942e-06
2.53219e-06
2.3838e-06
2.24375e-06
2.11161e-06
1.98694e-06
1.86935e-06
1.75845e-06
1.65387e-06
1.55527e-06
1.46233e-06
1.37473e-06
1.29217e-06
1.21439e-06
1.14112e-06
1.0721e-06
1.0071e-06
9.45902e-07
8.88283e-07
8.34045e-07
7.83e-07
7.34966e-07
6.89772e-07
6.47259e-07
6.07273e-07
5.6967e-07
5.34315e-07
5.01077e-07
4.69835e-07
4.40474e-07
4.12885e-07
3.86966e-07
3.62619e-07
3.39752e-07
3.1828e-07
2.98121e-07
2.79197e-07
2.61435e-07
2.44768e-07
2.29129e-07
2.14459e-07
2.007e-07
1.87797e-07
1.75699e-07
1.64358e-07
1.53728e-07
1.43767e-07
1.34435e-07
1.25693e-07
1.17505e-07
1.09839e-07
1.02662e-07
9.59452e-08
8.96597e-08
8.37795e-08
7.82799e-08
7.31376e-08
6.83307e-08
6.38388e-08
5.96426e-08
5.5724e-08
5.2066e-08
4.86528e-08
4.54694e-08
4.25018e-08
3.9737e-08
3.71628e-08
3.47676e-08
3.25409e-08
3.04727e-08
2.85536e-08
2.6775e-08
2.51288e-08
2.36076e-08
2.22043e-08
2.09127e-08
1.97267e-08
1.86409e-08
1.76502e-08
1.67502e-08
1.59365e-08
1.52054e-08
1.45535e-08
1.39778e-08
1.34754e-08
1.30442e-08
1.2682e-08
1.23872e-08
1.21583e-08
1.19943e-08
1.18944e-08
1.18582e-08
)
;

boundaryField
{
    sides
    {
        type            zeroGradient;
    }
    empty
    {
        type            empty;
    }
}


// ************************************************************************* //
