/*--------------------------------*- C++ -*----------------------------------*\
| =========                 |                                                 |
| \\      /  F ield         | OpenFOAM: The Open Source CFD Toolbox           |
|  \\    /   O peration     | Version:  2312                                  |
|   \\  /    A nd           | Website:  www.openfoam.com                      |
|    \\/     M anipulation  |                                                 |
\*---------------------------------------------------------------------------*/
FoamFile
{
    version     2.0;
    format      ascii;
    arch        "LSB;label=32;scalar=64";
    class       volScalarField;
    location    "3";
    object      T;
}
// * * * * * * * * * * * * * * * * * * * * * * * * * * * * * * * * * * * * * //

dimensions      [0 0 0 1 0 0 0];

internalField   nonuniform List<scalar> 
1000
(
0
0
0
0
0
0
0
0
0
0
0
0
0
0
0
0
0
0
0
0
0
0
0
0
0
0
0
0
0
0
0
0
0
0
0
0
0
0
0
0
0
0
0
0
0
0
0
0
0
0
0
0
0
0
0
0
0
0
0
0
0
0
0
0
0
0
0
0
0
0
0
0
0
0
0
0
0
0
0
0
0
0
0
0
0
0
0
0
0
0
0
0
0
0
0
0
0
0
0
0
0
0
0
0
0
0
0
0
0
0
0
0
0
0
0
0
0
0
0
0
0
0
0
0
0
0
0
0
0
0
0
0
0
0
0
0
0
0
0
0
0
0
0
0
0
0
0
0
0
0
0
0
0
0
0
0
0
0
0
0
0
0
0
0
0
0
0
0
0
0
0
0
0
0
0
0
0
0
0
0
0
0
0
0
0
0
0
0
0
0
0
0
0
0
0
0
0
0
0
0
0
0
0
0
0
0
0
0
0
0
0
0
0
0
0
0
0
0
0
0
0
0
0
0
0
0
0
0
0
0
0
0
0
0
0
0
0
0
0
0
0
0
0
0
0
0
0
0
0
0
0
0
0
0
0
0
0
0
0
0
0
0
0
0
0
0
0
0
0
0
0
0
0
0
0
0
0
0
0
0
0
0
0
0
0
0
0
0
0
0
0
0
0
0
0
0
0
0
0
0
0
0
0
0
0
0
0
0
0
0
0
0
0
0
0
0
0
0
0
0
0
0
0
0
0
0
0
0
0
0
0
0
0
0
0
0
0
0
0
0
0
0
0
0
0
0
0
0
0
0
0
0
0
0
0
0
0
0
0
0
0
0
0
0
0
0
0
0
0
0
0
0
0
0
0
0
0
0
0
0
0
0
0
0
0
0
0
0
0
0
0
0
0
0
0
0
0
0
0
0
0
0
0
0
0
0
0
0
0
0
0
0
0
0
0
0
0
0
0
0
0
0
0
0
0
0
0
0
0
0
0
0
0
0
0
0
0
0
0
0
0
0
0
0
0
0
0
0
0
0
2.15585e-86
4.13727e-84
3.97132e-82
2.54226e-80
1.22101e-78
4.69317e-77
1.50379e-75
4.13156e-74
9.93588e-73
2.12472e-71
4.09066e-70
7.16225e-69
1.14993e-67
1.70486e-66
2.34788e-65
3.01895e-64
3.64051e-63
4.1333e-62
4.43367e-61
4.50718e-60
4.35438e-59
4.00788e-58
3.52254e-57
2.96243e-56
2.38844e-55
1.8493e-54
1.37729e-53
9.88118e-53
6.83841e-52
4.57108e-51
2.95471e-50
1.84897e-49
1.12128e-48
6.59613e-48
3.76754e-47
2.0912e-46
1.1289e-45
5.93167e-45
3.0358e-44
1.51442e-43
7.36855e-43
3.49907e-42
1.62262e-41
7.35224e-41
3.25685e-40
1.41116e-39
5.98365e-39
2.48414e-38
1.01019e-37
4.02563e-37
1.57272e-36
6.02599e-36
2.26533e-35
8.35842e-35
3.02802e-34
1.07742e-33
3.76657e-33
1.29414e-32
4.37146e-32
1.45214e-31
4.74518e-31
1.52574e-30
4.82845e-30
1.50435e-29
4.61544e-29
1.39479e-28
4.15273e-28
1.21841e-27
3.52355e-27
1.0046e-26
2.82436e-26
7.83162e-26
2.14227e-25
5.78189e-25
1.54001e-24
4.04866e-24
1.05078e-23
2.6928e-23
6.81488e-23
1.70352e-22
4.20668e-22
1.02637e-21
2.47462e-21
5.89679e-21
1.38897e-20
3.23442e-20
7.44716e-20
1.69564e-19
3.81843e-19
8.50547e-19
1.87426e-18
4.08635e-18
8.81589e-18
1.88224e-17
3.9775e-17
8.32e-17
1.72291e-16
3.53246e-16
7.17152e-16
1.44182e-15
2.87094e-15
5.66229e-15
1.10626e-14
2.14124e-14
4.10634e-14
7.80311e-14
1.46941e-13
2.74235e-13
5.07274e-13
9.30127e-13
1.69067e-12
3.04669e-12
5.4436e-12
9.64428e-12
1.69439e-11
2.95223e-11
5.10169e-11
8.74459e-11
1.48682e-10
2.50786e-10
4.19667e-10
6.9678e-10
1.1479e-09
1.87657e-09
3.04441e-09
4.90175e-09
7.83315e-09
1.24248e-08
1.9563e-08
3.05777e-08
4.74486e-08
7.31004e-08
1.1182e-07
1.69844e-07
2.56175e-07
3.83713e-07
5.708e-07
8.43324e-07
1.23755e-06
1.8039e-06
2.61199e-06
3.75717e-06
5.36914e-06
7.62303e-06
1.07536e-05
1.50731e-05
2.09944e-05
2.90586e-05
3.99705e-05
5.46413e-05
7.42406e-05
0.000100259
0.000134582
0.00017958
0.000238207
0.000314124
0.000411828
0.000536813
0.000695733
0.000896597
0.00114897
0.00146418
0.00185557
0.00233874
0.00293174
0.00365537
0.00453335
0.00559257
0.00686323
0.00837901
0.0101771
0.0122983
0.0147869
0.0176906
0.0210601
0.0249492
0.0294138
0.0345118
0.040302
0.0468439
0.0541963
0.0624165
0.0715593
0.0816759
0.0928127
0.10501
0.118301
0.132712
0.148257
0.164944
0.182767
0.201709
0.221743
0.242828
0.264912
0.287931
0.31181
0.336462
0.361792
0.387696
0.414063
0.440775
0.467713
0.494751
0.521767
0.548637
0.575239
0.601459
0.627185
0.652313
0.676748
0.700404
0.723205
0.745086
0.765991
0.785878
0.804715
0.82248
0.839163
0.854762
0.869287
0.882754
0.895189
0.906622
0.91709
0.926635
0.935303
0.943142
0.950203
0.956536
0.962194
0.967229
0.971691
0.975629
0.979092
0.982125
0.98477
0.987068
0.989057
0.990772
0.992244
0.993503
0.994576
0.995485
0.996253
0.996899
0.997438
0.997887
0.998256
0.998557
0.998798
0.998987
0.999129
0.999228
0.999287
0.999307
0.999287
0.999224
0.999115
0.998954
0.998734
0.998444
0.998073
0.997606
0.997025
0.996311
0.995441
0.994388
0.993122
0.99161
0.989814
0.987695
0.985208
0.982306
0.978937
0.975049
0.970585
0.965487
0.959697
0.953155
0.945803
0.937583
0.92844
0.918324
0.907187
0.89499
0.881699
0.867288
0.851743
0.835056
0.817233
0.798291
0.778257
0.757172
0.735088
0.712069
0.68819
0.663538
0.638208
0.612304
0.585937
0.559225
0.532287
0.505249
0.478233
0.451363
0.424761
0.398541
0.372815
0.347687
0.323252
0.299596
0.276795
0.254914
0.234009
0.214122
0.195285
0.17752
0.160837
0.145238
0.130713
0.117246
0.104811
0.0933782
0.08291
0.0733647
0.0646968
0.0568578
0.0497974
0.0434641
0.0378059
0.0327712
0.0283092
0.0243705
0.0209076
0.0178749
0.0152295
0.012931
0.0109416
0.00922637
0.00775333
0.0064931
0.00541907
0.00450721
0.00373596
0.00308611
0.00254061
0.00208441
0.00170432
0.00138881
0.00112787
0.000912872
0.000736364
0.000591986
0.000474319
0.000378768
0.000301454
0.000239122
0.000189048
0.000148964
0.000116991
9.15768e-05
7.14476e-05
5.556e-05
4.30639e-05
3.32693e-05
2.56187e-05
1.96634e-05
1.50436e-05
1.1472e-05
8.72025e-06
6.60725e-06
4.99023e-06
3.75692e-06
2.81942e-06
2.10915e-06
1.57282e-06
1.16917e-06
8.66384e-07
6.39999e-07
4.71291e-07
3.45974e-07
2.5319e-07
1.84715e-07
1.34343e-07
9.74074e-08
7.04097e-08
5.07391e-08
3.64525e-08
2.6109e-08
1.86438e-08
1.32729e-08
9.42078e-09
6.66657e-09
4.70345e-09
3.30852e-09
2.32037e-09
1.62253e-09
1.13121e-09
7.86341e-10
5.45008e-10
3.76636e-10
2.5952e-10
1.78302e-10
1.22146e-10
8.34349e-11
5.68279e-11
3.85946e-11
2.61365e-11
1.76492e-11
1.18841e-11
7.97949e-12
5.34261e-12
3.56703e-12
2.37486e-12
1.57671e-12
1.04388e-12
6.89191e-13
4.53755e-13
2.97921e-13
1.95066e-13
1.2737e-13
8.29394e-14
5.38601e-14
3.4881e-14
2.25284e-14
1.45109e-14
9.3215e-15
5.97184e-15
3.81561e-15
2.43141e-15
1.54523e-15
9.79428e-16
6.19157e-16
3.90374e-16
2.4548e-16
1.53961e-16
9.63091e-17
6.00883e-17
3.73923e-17
2.32085e-17
1.43677e-17
8.87174e-18
5.46402e-18
3.35662e-18
2.05675e-18
1.25706e-18
7.66343e-19
4.66007e-19
2.8266e-19
1.71018e-19
1.03212e-19
6.21339e-20
3.73117e-20
2.23501e-20
1.33548e-20
7.96015e-21
4.73296e-21
2.80722e-21
1.66095e-21
9.80331e-22
5.77206e-22
3.39026e-22
1.98648e-22
1.16114e-22
6.77077e-23
3.93866e-23
2.2857e-23
1.32328e-23
7.64276e-24
4.40369e-24
2.53137e-24
1.45167e-24
8.30537e-25
4.74056e-25
2.6995e-25
1.53364e-25
8.69266e-26
4.91557e-26
2.77325e-26
1.561e-26
8.7663e-27
4.91172e-27
2.74572e-27
1.5314e-27
8.52179e-28
4.73139e-28
2.62098e-28
1.44863e-28
7.98866e-29
4.39558e-29
2.41316e-29
1.32186e-29
7.22471e-30
3.93994e-30
2.14387e-30
1.16399e-30
6.30581e-31
3.40864e-31
1.83852e-31
9.89485e-32
5.31378e-32
2.84744e-32
1.52253e-32
8.12339e-33
4.32487e-33
2.29761e-33
1.21801e-33
6.44308e-34
3.40104e-34
1.79146e-34
9.41634e-35
4.93899e-35
2.58511e-35
1.35022e-35
7.03754e-36
3.66039e-36
1.89989e-36
9.84068e-37
5.08652e-37
2.62371e-37
1.35056e-37
6.93777e-38
3.55658e-38
1.81951e-38
9.28944e-39
4.73303e-39
2.40661e-39
1.22121e-39
6.18441e-40
3.12557e-40
1.57647e-40
7.93544e-41
3.98645e-41
1.99864e-41
1.00004e-41
4.99388e-42
2.48884e-42
1.23794e-42
6.1453e-43
3.04462e-43
1.50547e-43
7.42949e-44
3.65931e-44
1.79884e-44
8.8256e-45
4.32169e-45
2.11214e-45
1.03028e-45
5.01594e-46
)
;

boundaryField
{
    sides
    {
        type            zeroGradient;
    }
    empty
    {
        type            empty;
    }
}


// ************************************************************************* //
