/*--------------------------------*- C++ -*----------------------------------*\
| =========                 |                                                 |
| \\      /  F ield         | OpenFOAM: The Open Source CFD Toolbox           |
|  \\    /   O peration     | Version:  2312                                  |
|   \\  /    A nd           | Website:  www.openfoam.com                      |
|    \\/     M anipulation  |                                                 |
\*---------------------------------------------------------------------------*/
FoamFile
{
    version     2.0;
    format      ascii;
    arch        "LSB;label=32;scalar=64";
    class       volScalarField;
    location    "0.2";
    object      T;
}
// * * * * * * * * * * * * * * * * * * * * * * * * * * * * * * * * * * * * * //

dimensions      [0 0 0 1 0 0 0];

internalField   nonuniform List<scalar> 
1000
(
0
0
0
0
0
0
0
0
0
0
0
0
0
0
0
0
0
0
0
0
0
0
0
0
0
0
0
0
0
0
0
0
0
0
0
0
0
0
0
0
0
0
0
0
0
0
0
0
0
0
0
0
0
0
0
0
0
0
0
0
0
0
0
0
0
0
0
0
0
0
0
0
0
0
0
0
0
0
0
0
0
0
0
0
0
0
0
0
0
0
0
0
0
0
0
0
0
0
0
0
0
0
0
0
0
0
0
0
0
0
0
0
0
0
0
0
0
0
0
0
0
0
0
0
0
0
0
0
0
0
0
0
0
0
0
0
0
0
0
0
0
0
0
0
0
0
0
0
0
0
0
0
0
0
0
0
0
0
0
0
0
0
0
0
0
0
0
0
0
0
0
0
0
0
0
0
0
0
0
0
0
0
0
0
0
0
0
0
0
0
0
0
0
0
0
0
0
0
0
0
0
0
0
0
0
0
0
0
0
0
0
0
0
0
0
0
0
0
0
0
0
0
0
0
0
0
0
0
0
0
0
0
0
0
0
0
0
0
0
0
0
0
0
0
0
0
0
0
0
0
0
0
0
0
0
0
0
0
0
0
0
0
0
0
0
0
0
0
0
0
0
0
0
0
0
0
0
0
0
0
0
0
0
0
0
0
0
0
0
0
0
0
0
0
0
0
0
0
0
0
0
0
0
0
0
0
0
0
0
0
0
0
0
0
0
0
0
0
0
0
0
0
0
0
0
0
0
0
0
0
0
0
0
0
0
0
0
0
0
0
0
0
0
0
0
0
0
0
0
0
0
0
0
0
0
0
0
0
0
0
0
0
0
0
0
0
0
0
0
0
0
0
0
0
0
0
0
0
0
0
0
0
0
0
0
0
0
0
0
0
0
0
0
0
0
0
0
0
0
0
0
0
0
0
0
0
0
0
0
0
0
0
0
0
0
-2.04112e-39
2.34966e-26
-5.11655e-20
5.29341e-17
-1.5451e-15
1.26388e-14
-6.79441e-14
3.19105e-13
-1.4201e-12
6.05814e-12
-2.47509e-11
9.65986e-11
-3.58979e-10
1.26525e-09
-4.20955e-09
1.31439e-08
-3.82348e-08
1.0263e-07
-2.50855e-07
5.47469e-07
-1.03244e-06
1.5746e-06
-1.58796e-06
-3.72663e-07
5.81903e-06
-1.24361e-05
1.05776e-05
1.55413e-05
-5.60168e-05
4.41746e-05
9.17217e-05
-0.000224153
-2.55416e-05
0.000603887
-0.000274144
-0.00142684
0.000943763
0.00348553
-0.00157508
-0.0088099
-0.00172392
0.0194278
0.0223495
-0.0148435
-0.0736801
-0.0812003
0.00544855
0.19665
0.444507
0.679727
0.852948
0.95231
0.993722
1
1
1
1
1
1
1
1
1
1
1
1
1
1
1
1
1
1
1
1
1
1
1
1
1
1
1
1
1
1
1
1
1
1
1
1
1
1
1
1
1
1
1
1
1
1
1
1
1
1
1
1
1
1
1
1
1
1
1
1
1
1
1
1
1
1
0.999999
1
0.999998
1
1
0.999994
1.00001
0.999989
0.999986
1.00006
0.999952
0.999912
1.00023
1.00002
0.999393
1.0003
1.00141
0.999007
0.996519
1.00166
1.00886
1.00165
0.980469
0.977676
1.015
1.07377
1.08108
0.99418
0.80289
0.555134
0.320099
0.147011
0.04771
0.00629983
2.02927e-07
1.29098e-08
8.20665e-10
5.21337e-11
3.30913e-12
2.09889e-13
1.42898e-14
1.98127e-16
1.4762e-16
1.17659e-16
8.23424e-17
5.27361e-17
3.22588e-17
1.94438e-17
1.17023e-17
7.01979e-18
4.16123e-18
2.41712e-18
1.36806e-18
7.5231e-19
4.01536e-19
2.08016e-19
1.0465e-19
5.11669e-20
2.43335e-20
1.12657e-20
5.08174e-21
2.23521e-21
9.5942e-22
4.02167e-22
1.64747e-22
6.59983e-23
2.5872e-23
9.93062e-24
3.73443e-24
1.37663e-24
4.97719e-25
1.76583e-25
6.15066e-26
2.10429e-26
7.07453e-27
2.3382e-27
7.6004e-28
2.43072e-28
7.65141e-29
2.37146e-29
7.23949e-30
2.17755e-30
6.45557e-31
1.88688e-31
5.43916e-32
1.54675e-32
4.34044e-33
1.20224e-33
3.28778e-34
8.87937e-35
2.36884e-35
6.24406e-36
1.62658e-36
4.18849e-37
1.06637e-37
2.68483e-38
6.68609e-39
1.64725e-39
4.01572e-40
9.68865e-41
2.31386e-41
5.47093e-42
1.28088e-42
2.96998e-43
6.82126e-44
1.55206e-44
3.49907e-45
7.81739e-46
1.731e-46
3.79946e-47
8.26788e-48
1.78391e-48
3.81691e-49
8.09972e-50
1.7049e-50
3.56001e-51
7.37529e-52
1.51611e-52
3.09285e-53
6.2619e-54
1.25841e-54
2.51045e-55
4.97209e-56
9.77751e-57
1.90924e-57
3.70237e-58
7.13059e-59
1.36407e-59
2.5921e-60
4.8934e-61
9.17805e-62
1.71043e-62
3.16749e-63
5.82923e-64
1.06618e-64
1.93822e-65
3.50239e-66
6.29141e-67
1.12353e-67
1.99481e-68
3.52155e-69
6.18173e-70
1.07909e-70
1.87331e-71
3.23437e-72
5.55427e-73
9.48745e-74
1.61207e-74
2.72492e-75
4.58234e-76
7.66671e-77
1.27627e-77
2.11405e-78
3.48457e-79
5.71566e-80
9.33022e-81
1.51582e-81
2.45107e-82
3.94493e-83
6.32002e-84
1.00789e-84
1.60011e-85
2.52896e-86
3.97936e-87
6.23423e-88
9.72457e-89
1.51041e-89
2.33602e-90
3.59775e-91
5.51797e-92
8.42826e-93
1.28211e-93
1.94248e-94
2.93125e-95
4.40585e-96
6.59632e-97
9.83755e-98
1.46151e-98
2.16302e-99
3.18918e-100
4.68463e-101
6.85586e-102
9.99666e-103
1.45234e-103
2.10241e-104
3.03261e-105
4.35892e-106
6.24338e-107
8.91152e-108
1.26762e-108
1.79699e-109
2.53882e-110
3.57489e-111
5.01709e-112
7.01796e-113
9.7848e-114
1.35984e-114
1.88378e-115
2.6013e-116
3.58082e-117
4.91379e-118
6.72209e-119
9.16761e-120
1.24648e-120
1.68966e-121
2.28357e-122
3.07706e-123
4.13407e-124
5.53796e-125
7.3971e-126
9.85198e-127
1.30842e-127
1.73276e-128
2.2883e-129
3.01353e-130
3.95766e-131
5.18336e-132
6.7702e-133
8.819e-134
1.14571e-134
1.48448e-135
1.91836e-136
2.47257e-137
3.17863e-138
4.0758e-139
5.21283e-140
6.65017e-141
8.46248e-142
1.07418e-142
1.36012e-143
1.71795e-144
2.16461e-145
2.7208e-146
3.41166e-147
4.26773e-148
5.32596e-149
6.63093e-150
8.23636e-151
1.02067e-151
1.26194e-152
1.55666e-153
1.91585e-154
2.35262e-155
2.88248e-156
3.52382e-157
4.29836e-158
5.23165e-159
6.35371e-160
7.69975e-161
9.31091e-162
1.12352e-162
1.35285e-163
1.62556e-164
1.94916e-165
2.33233e-166
2.78508e-167
3.31891e-168
3.94702e-169
4.68451e-170
5.54865e-171
6.5591e-172
7.73821e-173
9.11132e-174
1.07071e-174
1.2558e-175
1.47004e-176
1.71753e-177
2.00287e-178
2.3312e-179
2.70825e-180
3.14041e-181
3.63477e-182
4.19919e-183
4.84237e-184
5.57391e-185
6.40434e-186
7.34527e-187
8.4094e-188
9.61058e-189
1.0964e-189
1.2486e-190
1.41945e-191
1.61089e-192
1.825e-193
2.06403e-194
2.3304e-195
2.6267e-196
2.95569e-197
3.32033e-198
3.72377e-199
4.16934e-200
4.66056e-201
5.20117e-202
5.79507e-203
6.44639e-204
7.15942e-205
7.93865e-206
8.78876e-207
9.71459e-208
1.07211e-208
1.18136e-209
1.29972e-210
1.42774e-211
1.56598e-212
1.71498e-213
1.87533e-214
2.04759e-215
2.23232e-216
2.43011e-217
2.64151e-218
2.86708e-219
3.10737e-220
3.36291e-221
3.6342e-222
3.92173e-223
4.22596e-224
4.54733e-225
4.88621e-226
5.24297e-227
5.61792e-228
6.01131e-229
6.42336e-230
6.85421e-231
7.30396e-232
7.77263e-233
8.26018e-234
8.7665e-235
9.2914e-236
9.83462e-237
1.03958e-237
1.09746e-238
1.15703e-239
1.21826e-240
1.28106e-241
1.34535e-242
1.41107e-243
1.4781e-244
1.54635e-245
1.61571e-246
1.68606e-247
1.75727e-248
1.82922e-249
1.90175e-250
1.97472e-251
2.04799e-252
2.12138e-253
2.19474e-254
2.2679e-255
2.34068e-256
2.41291e-257
2.48442e-258
2.55503e-259
2.62455e-260
2.6928e-261
2.75962e-262
2.82481e-263
2.88821e-264
2.94965e-265
3.00895e-266
3.06596e-267
3.12051e-268
3.17247e-269
3.22167e-270
3.268e-271
3.31131e-272
3.3515e-273
3.38845e-274
3.42207e-275
3.45226e-276
3.47894e-277
3.50206e-278
3.52155e-279
3.53737e-280
3.54948e-281
3.55788e-282
3.56254e-283
3.56347e-284
3.56069e-285
3.55422e-286
3.5441e-287
3.53038e-288
3.51311e-289
3.49237e-290
3.46823e-291
3.44078e-292
3.41013e-293
3.37637e-294
3.33961e-295
3.29999e-296
3.25762e-297
3.21264e-298
3.16519e-299
3.1154e-300
3.06343e-301
3.00942e-302
2.95352e-303
2.8959e-304
2.8367e-305
2.77608e-306
2.71419e-307
2.6512e-308
2.58724e-309
2.52249e-310
2.45707e-311
2.39115e-312
2.32486e-313
2.25834e-314
2.19172e-315
2.12515e-316
2.05874e-317
1.99261e-318
1.92681e-319
1.86115e-320
1.79346e-321
1.72923e-322
1.4822e-323
0
0
0
0
0
0
0
0
0
0
0
0
0
0
0
0
0
0
0
0
0
0
0
0
0
0
0
0
0
0
0
0
0
0
0
0
0
0
0
0
0
0
0
0
0
0
0
0
0
0
)
;

boundaryField
{
    sides
    {
        type            zeroGradient;
    }
    empty
    {
        type            empty;
    }
}


// ************************************************************************* //
