/*--------------------------------*- C++ -*----------------------------------*\
| =========                 |                                                 |
| \\      /  F ield         | OpenFOAM: The Open Source CFD Toolbox           |
|  \\    /   O peration     | Version:  2312                                  |
|   \\  /    A nd           | Website:  www.openfoam.com                      |
|    \\/     M anipulation  |                                                 |
\*---------------------------------------------------------------------------*/
FoamFile
{
    version     2.0;
    format      ascii;
    arch        "LSB;label=32;scalar=64";
    class       volScalarField;
    location    "1";
    object      T;
}
// * * * * * * * * * * * * * * * * * * * * * * * * * * * * * * * * * * * * * //

dimensions      [0 0 0 1 0 0 0];

internalField   nonuniform List<scalar> 
1000
(
3.4553e-23
3.54626e-23
3.80045e-23
4.22913e-23
4.85128e-23
5.69439e-23
6.79565e-23
8.2035e-23
9.97968e-23
1.22019e-22
1.49668e-22
1.83947e-22
2.26335e-22
2.78661e-22
3.43168e-22
4.22614e-22
5.2038e-22
6.40607e-22
7.88372e-22
9.69883e-22
1.19274e-21
1.46622e-21
1.80168e-21
2.21297e-21
2.71702e-21
3.33447e-21
4.0905e-21
5.0158e-21
6.1478e-21
7.53205e-21
9.22402e-21
1.12912e-20
1.38158e-20
1.68976e-20
2.06579e-20
2.52441e-20
3.08352e-20
3.76485e-20
4.59474e-20
5.60515e-20
6.8348e-20
8.33061e-20
1.01494e-19
1.23599e-19
1.50454e-19
1.83065e-19
2.22647e-19
2.7067e-19
3.28909e-19
3.99506e-19
4.85046e-19
5.88645e-19
7.14061e-19
8.65821e-19
1.04938e-18
1.2713e-18
1.53948e-18
1.86342e-18
2.25455e-18
2.72658e-18
3.296e-18
3.98261e-18
4.81014e-18
5.80709e-18
7.00759e-18
8.45258e-18
1.01911e-17
1.22818e-17
1.47949e-17
1.78144e-17
2.14408e-17
2.57941e-17
3.10176e-17
3.72826e-17
4.47933e-17
5.37934e-17
6.45735e-17
7.74798e-17
9.29247e-17
1.11399e-16
1.33488e-16
1.59887e-16
1.91421e-16
2.29073e-16
2.74011e-16
3.2762e-16
3.91544e-16
4.67733e-16
5.58501e-16
6.66589e-16
7.95242e-16
9.48306e-16
1.13033e-15
1.34669e-15
1.60376e-15
1.90906e-15
2.27146e-15
2.70145e-15
3.21142e-15
3.81595e-15
4.53228e-15
5.38067e-15
6.38504e-15
7.5735e-15
8.97917e-15
1.0641e-14
1.26048e-14
1.49243e-14
1.76627e-14
2.08943e-14
2.47061e-14
2.92003e-14
3.44965e-14
4.07351e-14
4.80804e-14
5.67247e-14
6.68933e-14
7.88494e-14
9.29007e-14
1.09407e-13
1.28788e-13
1.51535e-13
1.78218e-13
2.09507e-13
2.46178e-13
2.89137e-13
3.3944e-13
3.98316e-13
4.67193e-13
5.47734e-13
6.41869e-13
7.51844e-13
8.80265e-13
1.03016e-12
1.20503e-12
1.40894e-12
1.64663e-12
1.92354e-12
2.24599e-12
2.62132e-12
3.05799e-12
3.56579e-12
4.15602e-12
4.84176e-12
5.6381e-12
6.56243e-12
7.63483e-12
8.87846e-12
1.032e-11
1.19901e-11
1.39242e-11
1.61628e-11
1.8753e-11
2.17482e-11
2.52105e-11
2.92106e-11
3.383e-11
3.91621e-11
4.5314e-11
5.24083e-11
6.05858e-11
7.00073e-11
8.0857e-11
9.33455e-11
1.07714e-10
1.24237e-10
1.4323e-10
1.6505e-10
1.90108e-10
2.1887e-10
2.51869e-10
2.8971e-10
3.33084e-10
3.82776e-10
4.39681e-10
5.04814e-10
5.7933e-10
6.64541e-10
7.61937e-10
8.73206e-10
1.00027e-09
1.14529e-09
1.31074e-09
1.49939e-09
1.71442e-09
1.95938e-09
2.23832e-09
2.55579e-09
2.91694e-09
3.32761e-09
3.79434e-09
4.32454e-09
4.92657e-09
5.60983e-09
6.3849e-09
7.26372e-09
8.2597e-09
9.38791e-09
1.06653e-08
1.2111e-08
1.37462e-08
1.55951e-08
1.76844e-08
2.00445e-08
2.2709e-08
2.57159e-08
2.91075e-08
3.29311e-08
3.72399e-08
4.20929e-08
4.75565e-08
5.37044e-08
6.0619e-08
6.83923e-08
7.71268e-08
8.69365e-08
9.79487e-08
1.10305e-07
1.24162e-07
1.39696e-07
1.571e-07
1.7659e-07
1.98407e-07
2.22817e-07
2.50113e-07
2.80624e-07
3.14711e-07
3.52774e-07
3.95259e-07
4.42654e-07
4.95504e-07
5.54406e-07
6.20023e-07
6.93084e-07
7.74396e-07
8.64847e-07
9.65414e-07
1.07718e-06
1.20132e-06
1.33915e-06
1.4921e-06
1.66175e-06
1.84984e-06
2.05825e-06
2.28909e-06
2.54463e-06
2.82739e-06
3.14011e-06
3.4858e-06
3.86776e-06
4.28958e-06
4.7552e-06
5.26891e-06
5.83541e-06
6.45983e-06
7.14774e-06
7.90525e-06
8.73898e-06
9.65616e-06
1.06646e-05
1.1773e-05
1.29905e-05
1.43273e-05
1.57943e-05
1.74035e-05
1.91677e-05
2.1101e-05
2.32185e-05
2.55367e-05
2.80733e-05
3.08475e-05
3.38802e-05
3.71938e-05
4.08126e-05
4.47628e-05
4.90725e-05
5.37723e-05
5.88949e-05
6.44756e-05
7.05525e-05
7.71664e-05
8.43613e-05
9.21844e-05
0.000100686
0.000109922
0.000119948
0.000130829
0.000142631
0.000155426
0.000169291
0.000184307
0.000200562
0.00021815
0.000237171
0.000257732
0.000279946
0.000303934
0.000329826
0.000357759
0.000387879
0.00042034
0.000455309
0.00049296
0.000533479
0.000577063
0.000623921
0.000674274
0.000728356
0.000786414
0.000848711
0.000915522
0.000987141
0.00106387
0.00114605
0.001234
0.0013281
0.00142871
0.00153625
0.00165113
0.00177379
0.00190469
0.00204431
0.00219318
0.00235181
0.00252076
0.00270062
0.002892
0.00309554
0.00331189
0.00354176
0.00378587
0.00404496
0.00431983
0.00461129
0.00492019
0.0052474
0.00559385
0.00596049
0.00634828
0.00675827
0.00719149
0.00764904
0.00813204
0.00864167
0.00917911
0.0097456
0.0103424
0.0109709
0.0116323
0.0123282
0.0130598
0.0138286
0.0146363
0.0154841
0.0163739
0.0173071
0.0182853
0.0193103
0.0203837
0.0215073
0.0226828
0.0239121
0.0251968
0.0265389
0.0279403
0.0294027
0.0309281
0.0325184
0.0341756
0.0359015
0.0376983
0.0395677
0.0415117
0.0435325
0.0456318
0.0478117
0.0500741
0.0524209
0.0548542
0.0573757
0.0599874
0.0626911
0.0654888
0.068382
0.0713727
0.0744626
0.0776532
0.0809462
0.0843433
0.0878458
0.0914552
0.0951729
0.0990002
0.102938
0.106988
0.111151
0.115428
0.11982
0.124327
0.128951
0.133691
0.138549
0.143524
0.148617
0.153828
0.159156
0.164602
0.170165
0.175845
0.181642
0.187554
0.19358
0.19972
0.205973
0.212336
0.218809
0.22539
0.232077
0.238868
0.245761
0.252754
0.259844
0.267029
0.274306
0.281671
0.289123
0.296657
0.304271
0.311961
0.319722
0.327552
0.335446
0.3434
0.35141
0.359471
0.367579
0.37573
0.383918
0.392138
0.400386
0.408657
0.416944
0.425244
0.43355
0.441856
0.450158
0.45845
0.466726
0.47498
0.483206
0.491398
0.499551
0.507659
0.515715
0.523713
0.531648
0.539513
0.547303
0.555012
0.562632
0.570159
0.577587
0.58491
0.592121
0.599215
0.606186
0.613029
0.619738
0.626308
0.632732
0.639007
0.645126
0.651084
0.656877
0.662499
0.667947
0.673214
0.678298
0.683193
0.687895
0.6924
0.696705
0.700806
0.704699
0.70838
0.711847
0.715097
0.718127
0.720934
0.723516
0.72587
0.727995
0.729888
0.731548
0.732974
0.734164
0.735117
0.735833
0.736311
0.736549
0.736549
0.736311
0.735833
0.735117
0.734164
0.732974
0.731548
0.729888
0.727995
0.72587
0.723516
0.720934
0.718127
0.715097
0.711847
0.70838
0.704699
0.700806
0.696705
0.6924
0.687895
0.683193
0.678298
0.673214
0.667947
0.662499
0.656877
0.651084
0.645126
0.639007
0.632732
0.626308
0.619738
0.613029
0.606186
0.599215
0.592121
0.58491
0.577587
0.570159
0.562632
0.555012
0.547303
0.539513
0.531648
0.523713
0.515715
0.507659
0.499551
0.491398
0.483206
0.47498
0.466726
0.45845
0.450158
0.441856
0.43355
0.425244
0.416944
0.408657
0.400386
0.392138
0.383918
0.37573
0.367579
0.359471
0.35141
0.3434
0.335446
0.327552
0.319722
0.311961
0.304271
0.296657
0.289123
0.281671
0.274306
0.267029
0.259844
0.252754
0.245761
0.238868
0.232077
0.22539
0.218809
0.212336
0.205973
0.19972
0.19358
0.187554
0.181642
0.175845
0.170165
0.164602
0.159156
0.153828
0.148617
0.143524
0.138549
0.133691
0.128951
0.124327
0.11982
0.115428
0.111151
0.106988
0.102938
0.0990002
0.0951729
0.0914552
0.0878458
0.0843433
0.0809462
0.0776532
0.0744626
0.0713727
0.068382
0.0654888
0.0626911
0.0599874
0.0573757
0.0548542
0.0524209
0.0500741
0.0478117
0.0456318
0.0435325
0.0415117
0.0395677
0.0376983
0.0359015
0.0341756
0.0325184
0.0309281
0.0294027
0.0279403
0.0265389
0.0251968
0.0239121
0.0226828
0.0215073
0.0203837
0.0193103
0.0182853
0.0173071
0.0163739
0.0154841
0.0146363
0.0138286
0.0130598
0.0123282
0.0116323
0.0109709
0.0103424
0.0097456
0.00917911
0.00864167
0.00813204
0.00764904
0.00719149
0.00675827
0.00634828
0.00596049
0.00559385
0.0052474
0.00492019
0.00461129
0.00431983
0.00404496
0.00378587
0.00354176
0.00331189
0.00309554
0.002892
0.00270062
0.00252076
0.00235181
0.00219318
0.00204431
0.00190469
0.00177379
0.00165113
0.00153625
0.00142871
0.0013281
0.001234
0.00114605
0.00106387
0.000987141
0.000915522
0.000848711
0.000786414
0.000728356
0.000674274
0.000623921
0.000577063
0.000533479
0.00049296
0.000455309
0.00042034
0.000387879
0.000357759
0.000329826
0.000303934
0.000279946
0.000257732
0.000237171
0.00021815
0.000200562
0.000184307
0.000169291
0.000155426
0.000142631
0.000130829
0.000119948
0.000109922
0.000100686
9.21844e-05
8.43613e-05
7.71664e-05
7.05525e-05
6.44756e-05
5.88949e-05
5.37723e-05
4.90725e-05
4.47628e-05
4.08126e-05
3.71938e-05
3.38802e-05
3.08475e-05
2.80733e-05
2.55367e-05
2.32185e-05
2.1101e-05
1.91677e-05
1.74035e-05
1.57943e-05
1.43273e-05
1.29905e-05
1.1773e-05
1.06646e-05
9.65616e-06
8.73898e-06
7.90525e-06
7.14774e-06
6.45983e-06
5.83541e-06
5.26891e-06
4.7552e-06
4.28958e-06
3.86776e-06
3.4858e-06
3.14011e-06
2.82739e-06
2.54463e-06
2.28909e-06
2.05825e-06
1.84984e-06
1.66175e-06
1.4921e-06
1.33915e-06
1.20132e-06
1.07718e-06
9.65414e-07
8.64847e-07
7.74396e-07
6.93084e-07
6.20023e-07
5.54406e-07
4.95504e-07
4.42654e-07
3.95259e-07
3.52774e-07
3.14711e-07
2.80624e-07
2.50113e-07
2.22817e-07
1.98407e-07
1.7659e-07
1.571e-07
1.39696e-07
1.24162e-07
1.10305e-07
9.79487e-08
8.69365e-08
7.71268e-08
6.83923e-08
6.0619e-08
5.37044e-08
4.75565e-08
4.20929e-08
3.72399e-08
3.29311e-08
2.91075e-08
2.57159e-08
2.2709e-08
2.00445e-08
1.76844e-08
1.55951e-08
1.37462e-08
1.2111e-08
1.06653e-08
9.38791e-09
8.2597e-09
7.26372e-09
6.3849e-09
5.60983e-09
4.92657e-09
4.32454e-09
3.79434e-09
3.32761e-09
2.91694e-09
2.55579e-09
2.23832e-09
1.95938e-09
1.71442e-09
1.49939e-09
1.31074e-09
1.14529e-09
1.00027e-09
8.73206e-10
7.61937e-10
6.64541e-10
5.7933e-10
5.04814e-10
4.39681e-10
3.82776e-10
3.33084e-10
2.8971e-10
2.51869e-10
2.1887e-10
1.90108e-10
1.6505e-10
1.4323e-10
1.24237e-10
1.07714e-10
9.33455e-11
8.0857e-11
7.00073e-11
6.05858e-11
5.24083e-11
4.5314e-11
3.91621e-11
3.383e-11
2.92106e-11
2.52105e-11
2.17482e-11
1.8753e-11
1.61628e-11
1.39242e-11
1.19901e-11
1.032e-11
8.87846e-12
7.63483e-12
6.56243e-12
5.6381e-12
4.84176e-12
4.15602e-12
3.56579e-12
3.05799e-12
2.62132e-12
2.24599e-12
1.92354e-12
1.64663e-12
1.40894e-12
1.20503e-12
1.03016e-12
8.80265e-13
7.51844e-13
6.41869e-13
5.47734e-13
4.67193e-13
3.98316e-13
3.3944e-13
2.89137e-13
2.46178e-13
2.09507e-13
1.78218e-13
1.51535e-13
1.28788e-13
1.09407e-13
9.29007e-14
7.88494e-14
6.68933e-14
5.67247e-14
4.80804e-14
4.07351e-14
3.44965e-14
2.92003e-14
2.47061e-14
2.08943e-14
1.76627e-14
1.49243e-14
1.26048e-14
1.0641e-14
8.97917e-15
7.5735e-15
6.38504e-15
5.38067e-15
4.53228e-15
3.81595e-15
3.21142e-15
2.70145e-15
2.27146e-15
1.90906e-15
1.60376e-15
1.34669e-15
1.13033e-15
9.48306e-16
7.95242e-16
6.66589e-16
5.58501e-16
4.67733e-16
3.91544e-16
3.2762e-16
2.74011e-16
2.29073e-16
1.91421e-16
1.59887e-16
1.33488e-16
1.11399e-16
9.29247e-17
7.74798e-17
6.45735e-17
5.37934e-17
4.47933e-17
3.72826e-17
3.10176e-17
2.57941e-17
2.14408e-17
1.78144e-17
1.47949e-17
1.22818e-17
1.01911e-17
8.45258e-18
7.00759e-18
5.80709e-18
4.81014e-18
3.98261e-18
3.296e-18
2.72658e-18
2.25455e-18
1.86342e-18
1.53948e-18
1.2713e-18
1.04938e-18
8.65821e-19
7.14061e-19
5.88645e-19
4.85046e-19
3.99506e-19
3.28909e-19
2.7067e-19
2.22647e-19
1.83065e-19
1.50454e-19
1.23599e-19
1.01494e-19
8.33061e-20
6.8348e-20
5.60515e-20
4.59474e-20
3.76485e-20
3.08352e-20
2.52441e-20
2.06579e-20
1.68976e-20
1.38158e-20
1.12912e-20
9.22402e-21
7.53205e-21
6.1478e-21
5.0158e-21
4.0905e-21
3.33447e-21
2.71702e-21
2.21297e-21
1.80168e-21
1.46622e-21
1.19274e-21
9.69883e-22
7.88372e-22
6.40607e-22
5.2038e-22
4.22614e-22
3.43168e-22
2.78661e-22
2.26335e-22
1.83947e-22
1.49668e-22
1.22019e-22
9.97968e-23
8.2035e-23
6.79565e-23
5.69439e-23
4.85128e-23
4.22913e-23
3.80045e-23
3.54626e-23
3.4553e-23
)
;

boundaryField
{
    sides
    {
        type            zeroGradient;
    }
    empty
    {
        type            empty;
    }
}


// ************************************************************************* //
