/*--------------------------------*- C++ -*----------------------------------*\
| =========                 |                                                 |
| \\      /  F ield         | OpenFOAM: The Open Source CFD Toolbox           |
|  \\    /   O peration     | Version:  2312                                  |
|   \\  /    A nd           | Website:  www.openfoam.com                      |
|    \\/     M anipulation  |                                                 |
\*---------------------------------------------------------------------------*/
FoamFile
{
    version     2.0;
    format      ascii;
    arch        "LSB;label=32;scalar=64";
    class       volScalarField;
    location    "1.3";
    object      T;
}
// * * * * * * * * * * * * * * * * * * * * * * * * * * * * * * * * * * * * * //

dimensions      [0 0 0 1 0 0 0];

internalField   nonuniform List<scalar> 
1000
(
0
0
0
0
0
0
0
0
0
0
0
0
0
0
0
0
0
0
0
0
0
0
0
0
0
0
0
0
0
0
0
0
0
0
0
0
0
0
0
0
0
0
0
0
0
0
0
0
0
0
0
0
0
0
0
0
0
0
0
0
0
0
0
0
0
0
0
0
0
0
0
0
0
0
0
0
0
0
0
0
0
0
0
0
0
0
0
0
0
0
0
0
0
0
0
0
0
0
0
0
0
-4.94066e-324
2.2233e-322
-4.71833e-321
1.0072e-319
-2.14187e-318
4.53666e-317
-9.56995e-316
2.01054e-314
-4.20669e-313
8.76577e-312
-1.81911e-310
3.75959e-309
-7.73808e-308
1.58611e-306
-3.23769e-305
6.58167e-304
-1.33239e-302
2.68608e-301
-5.39253e-300
1.07807e-298
-2.14627e-297
4.25495e-296
-8.39991e-295
1.65128e-293
-3.23244e-292
6.30084e-291
-1.22298e-289
2.36368e-288
-4.54888e-287
8.71687e-286
-1.66323e-284
3.15992e-283
-5.97762e-282
1.12591e-280
-2.11152e-279
3.94277e-278
-7.33021e-277
1.35686e-275
-2.50066e-274
4.58849e-273
-8.3825e-272
1.52463e-270
-2.76079e-269
4.97713e-268
-8.93295e-267
1.59616e-265
-2.83935e-264
5.02825e-263
-8.86472e-262
1.55582e-260
-2.71826e-259
4.72781e-258
-8.18572e-257
1.41084e-255
-2.42058e-254
4.13401e-253
-7.02802e-252
1.18931e-250
-2.00335e-249
3.35898e-248
-5.60587e-247
9.31234e-246
-1.53974e-244
2.53399e-243
-4.15073e-242
6.76706e-241
-1.09806e-239
1.77335e-238
-2.85037e-237
4.55975e-236
-7.25947e-235
1.15024e-233
-1.81378e-232
2.84634e-231
-4.44519e-230
6.90854e-229
-1.06849e-227
1.64449e-226
-2.51865e-225
3.83859e-224
-5.82149e-223
8.78517e-222
-1.3192e-220
1.97112e-219
-2.93052e-218
4.33512e-217
-6.3808e-216
9.34457e-215
-1.36159e-213
1.97391e-212
-2.84705e-211
4.08549e-210
-5.83264e-209
8.28419e-208
-1.17055e-206
1.64544e-205
-2.30097e-204
3.20091e-203
-4.42956e-202
6.09766e-201
-8.34973e-200
1.13732e-198
-1.54092e-197
2.07663e-196
-2.78364e-195
3.71134e-194
-4.92156e-193
6.49114e-192
-8.51483e-191
1.11086e-189
-1.44132e-188
1.85981e-187
-2.38659e-186
3.04562e-185
-3.86503e-184
4.87753e-183
-6.12079e-182
7.63773e-181
-9.47676e-180
1.16919e-178
-1.43426e-177
1.74936e-176
-2.12142e-175
2.55776e-174
-3.06598e-173
3.65377e-172
-4.32879e-171
5.09839e-170
-5.96937e-169
6.94771e-168
-8.03823e-167
9.24428e-166
-1.05674e-164
1.20069e-163
-1.35597e-162
1.522e-161
-1.69789e-160
1.88244e-159
-2.07414e-158
2.27115e-157
-2.47134e-156
2.67228e-155
-2.87133e-154
3.06562e-153
-3.25219e-152
3.42799e-151
-3.59e-150
3.73532e-149
-3.8612e-148
3.96518e-147
-4.04515e-146
4.0994e-145
-4.12671e-144
4.12639e-143
-4.09829e-142
4.0428e-141
-3.9609e-140
3.85406e-139
-3.72425e-138
3.57386e-137
-3.40561e-136
3.22251e-135
-3.02771e-134
2.82448e-133
-2.61604e-132
2.40554e-131
-2.19596e-130
1.99002e-129
-1.79016e-128
1.59847e-127
-1.41669e-126
1.24618e-125
-1.08793e-124
9.42559e-124
-8.1037e-123
6.91352e-122
-5.85239e-121
4.91541e-120
-4.09594e-119
3.38601e-118
-2.77676e-117
2.25879e-116
-1.82252e-115
1.45849e-114
-1.15754e-113
9.11045e-113
-7.11031e-112
5.50237e-111
-4.22174e-110
3.21131e-109
-2.42152e-108
1.80999e-107
-1.34095e-106
9.84597e-106
-7.1644e-105
5.16582e-104
-3.69061e-103
2.61226e-102
-1.8317e-101
1.27224e-100
-8.75225e-100
5.96295e-99
-4.02299e-98
2.68742e-97
-1.77735e-96
1.16362e-95
-7.54051e-95
4.83602e-94
-3.06915e-93
1.92724e-92
-1.19724e-91
7.3569e-91
-4.4711e-90
2.68704e-89
-1.59665e-88
9.37876e-88
-5.44519e-87
3.12418e-86
-1.77107e-85
9.91806e-85
-5.48562e-84
2.99601e-83
-1.61541e-82
8.59698e-82
-4.5147e-81
2.33896e-80
-1.19512e-79
6.02102e-79
-2.99002e-78
1.46313e-77
-7.05265e-77
3.34754e-76
-1.564e-75
7.18966e-75
-3.25047e-74
1.44458e-73
-6.30774e-73
2.70454e-72
-1.13797e-71
4.69563e-71
-1.89868e-70
7.51694e-70
-2.91104e-69
1.10156e-68
-4.06808e-68
1.46409e-67
-5.12645e-67
1.74287e-66
-5.7392e-66
1.82494e-65
-5.58145e-65
1.6333e-64
-4.53949e-64
1.18514e-63
-2.85416e-63
6.12752e-63
-1.08111e-62
1.13361e-62
1.76672e-62
-1.58137e-61
6.19973e-61
-1.81494e-60
4.19657e-60
-7.01512e-60
3.83239e-60
2.87762e-59
-1.49825e-58
4.56761e-58
-9.69847e-58
1.12299e-57
1.57669e-57
-1.36212e-56
4.48633e-56
-9.19397e-56
7.6684e-56
2.84138e-55
-1.57088e-54
4.14356e-54
-5.58022e-54
-5.4138e-54
5.44064e-53
-1.60654e-52
2.28322e-52
2.00838e-52
-2.0942e-51
5.82135e-51
-6.48586e-51
-1.43722e-50
8.57704e-50
-1.8443e-49
5.5587e-50
9.43211e-49
-3.18165e-48
3.78279e-48
8.00119e-48
-4.55306e-47
8.07841e-47
4.62595e-47
-6.0358e-46
1.33987e-45
3.36578e-47
-7.93753e-45
1.9841e-44
-2.89224e-45
-1.08166e-43
2.73943e-43
-1.40188e-44
-1.54354e-42
3.52566e-42
1.12268e-42
-2.24827e-41
4.05463e-41
4.46001e-41
-3.1757e-40
3.66101e-40
1.08666e-39
-4.05273e-39
1.23908e-39
2.03283e-38
-4.14925e-38
-4.33835e-38
2.97866e-37
-2.27457e-37
-1.28189e-36
3.11829e-36
2.5241e-36
-2.03187e-35
1.33457e-35
9.1996e-35
-1.84753e-34
-2.71371e-34
1.29051e-33
2.68057e-35
-6.83547e-33
6.69129e-33
2.94237e-32
-6.16085e-32
-9.99741e-32
4.00679e-31
2.08089e-31
-2.21145e-30
4.30882e-31
1.10197e-29
-8.64596e-30
-5.11791e-29
6.89676e-29
2.26452e-28
-4.37043e-28
-9.73667e-28
2.4784e-27
4.15785e-27
-1.3157e-26
-1.80875e-26
6.68235e-26
8.22611e-26
-3.28149e-25
-3.9806e-25
1.56287e-24
2.04962e-24
-7.193e-24
-1.10339e-23
3.16302e-23
6.0492e-23
-1.29836e-22
-3.29038e-22
4.73792e-22
1.73569e-21
-1.34488e-21
-8.69266e-21
1.17572e-21
4.03391e-20
2.12819e-20
-1.67215e-19
-2.20465e-19
5.74211e-19
1.45995e-18
-1.26745e-18
-7.60531e-18
-1.74382e-18
3.14834e-17
4.05266e-17
-9.21043e-17
-2.78696e-16
6.74802e-17
1.26997e-15
1.31163e-15
-3.65217e-15
-1.04065e-14
8.41931e-16
4.44102e-14
6.1703e-14
-8.92724e-14
-3.90477e-13
-2.59167e-13
1.15363e-12
2.97297e-12
4.96362e-13
-1.0927e-11
-2.1607e-11
3.11307e-12
9.00644e-11
1.60913e-10
-3.10849e-11
-6.77621e-10
-1.26558e-09
-7.74323e-11
4.581e-09
1.01948e-08
5.51089e-09
-2.50847e-08
-7.73406e-08
-8.87527e-08
6.83545e-08
4.80634e-07
9.30794e-07
6.1968e-07
-1.68235e-06
-6.4435e-06
-1.09613e-05
-6.98179e-06
1.82674e-05
7.28547e-05
0.0001399
0.000151167
-2.72357e-05
-0.000564452
-0.00155156
-0.0027816
-0.00343943
-0.00177795
0.00508581
0.0210984
0.0508049
0.0984836
0.167025
0.256841
0.365153
0.485953
0.610765
0.730065
0.83504
0.919202
0.979431
1.01622
1.03308
1.03539
1.02905
1.01926
1.00976
1.00264
0.998487
0.996905
0.997022
0.997935
0.998966
0.999746
1.00017
1.0003
1.00026
1.00015
1.00005
0.999995
0.999973
0.999974
0.999984
0.999994
1
1
1
1
1
1
1
1
1
1
1
1
1
1
1
1
1
1
1
1
1
1
1
1
1
1
1
1
1
1
1
1
1
1
1
1
1
1
1
1
1
1
1
1
1
1
1
1
0.999999
0.999999
1
1.00001
1.00001
1.00001
0.999982
0.999927
0.99986
0.999849
1.00003
1.00056
1.00155
1.00278
1.00344
1.00178
0.994914
0.978902
0.949195
0.901516
0.832975
0.743159
0.634847
0.514047
0.389235
0.269935
0.16496
0.0807983
0.0205688
-0.0162181
-0.0330774
-0.0353927
-0.0290521
-0.0192565
-0.00976103
-0.00263826
0.00151291
0.00309478
0.00297772
0.00206501
0.00103392
0.00025357
-0.000171816
-0.000301766
-0.000257541
-0.000151368
-5.44722e-05
4.7551e-06
2.71009e-05
2.60662e-05
1.5868e-05
5.82171e-06
-3.13601e-07
-2.52536e-06
-2.34433e-06
-1.32314e-06
-4.02334e-07
9.98674e-08
2.37494e-07
1.84281e-07
8.55562e-08
1.37465e-08
-1.69583e-08
-1.97312e-08
-1.16913e-08
-3.65677e-09
6.74766e-10
1.76459e-09
1.28029e-09
5.15354e-10
2.64525e-11
-1.38761e-10
-1.21793e-10
-5.64757e-11
-8.60138e-12
1.00643e-11
1.05217e-11
5.3004e-12
1.06102e-12
-7.11207e-13
-8.48764e-13
-4.43652e-13
-9.60975e-14
5.16921e-14
6.49518e-14
3.37335e-14
7.04951e-15
-3.9619e-15
-4.73882e-15
-2.34304e-15
-4.20673e-16
3.13425e-16
3.28245e-16
1.48018e-16
1.88015e-17
-2.44343e-17
-2.13526e-17
-8.38233e-18
-3.73229e-19
1.80029e-18
1.28459e-18
4.12855e-19
-3.67887e-20
-1.21875e-19
-7.00917e-20
-1.65128e-20
5.73157e-21
7.43886e-21
3.37602e-21
4.24405e-22
-4.97305e-22
-4.02685e-22
-1.36992e-22
5.216e-24
3.32198e-23
1.89272e-23
4.17585e-24
-1.57553e-24
-1.82662e-24
-7.43697e-25
-5.14849e-26
1.25629e-25
8.35861e-26
2.22632e-26
-4.38654e-27
-7.04358e-27
-3.10746e-27
-3.35039e-28
4.33857e-28
3.08835e-28
8.57354e-29
-1.33112e-29
-2.40516e-29
-1.05625e-29
-1.10413e-30
1.42766e-30
9.78653e-31
2.53511e-31
-4.92477e-32
-7.35553e-32
-2.96218e-32
-1.93348e-33
4.43922e-33
2.65984e-33
5.67868e-34
-1.88746e-34
-1.98718e-34
-6.75076e-35
1.09191e-36
1.24837e-35
6.0782e-36
8.56283e-37
-6.30607e-37
-4.60354e-37
-1.18502e-37
2.05819e-38
3.021e-38
1.12066e-38
3.40494e-40
-1.71177e-39
-8.77803e-40
-1.35682e-40
8.01158e-41
6.01594e-41
1.52882e-41
-2.58474e-42
-3.67453e-42
-1.29425e-42
-1.25276e-44
1.99895e-43
9.37749e-44
1.1434e-44
-9.47183e-45
-6.07566e-45
-1.27557e-45
3.63314e-46
3.5843e-46
1.04376e-46
-8.10439e-48
-1.93677e-47
-7.31304e-48
-3.08442e-49
9.55103e-49
4.61485e-49
5.90879e-50
-4.22837e-50
-2.68278e-50
-5.34067e-51
1.60681e-51
1.45311e-51
3.84778e-52
-4.52466e-53
-7.37243e-53
-2.44602e-53
1.85468e-55
3.50743e-54
1.42589e-54
1.00547e-55
-1.55963e-55
-7.76852e-56
-1.02953e-56
6.4212e-57
3.99846e-57
7.43965e-58
-2.39611e-58
-1.95717e-58
-4.60937e-59
7.6939e-60
9.14889e-60
2.59732e-60
-1.78929e-61
-4.09492e-61
-1.36657e-61
-1.40446e-64
1.75734e-62
6.81032e-63
3.75452e-64
-7.23291e-64
-3.24308e-64
-3.22843e-65
2.85244e-65
1.48448e-65
2.04417e-66
-1.07522e-66
-6.55955e-67
-1.12603e-67
3.8557e-68
2.80712e-68
5.69173e-69
-1.30404e-69
-1.16642e-69
-2.7049e-70
4.09273e-71
4.71618e-71
1.22476e-71
-1.15191e-72
-1.85891e-72
-5.32746e-73
2.65608e-74
7.15438e-74
2.23849e-74
-3.26037e-76
-2.69262e-75
-9.12156e-76
-1.30498e-77
9.92379e-77
3.61535e-77
1.38564e-78
-3.58642e-78
-1.397e-78
-8.17611e-80
1.27261e-79
5.27244e-80
3.98621e-81
-4.43954e-81
-1.94647e-81
-1.75276e-82
1.52458e-82
7.03802e-83
7.19283e-84
-5.16029e-84
-2.49502e-84
-2.80206e-85
1.72364e-85
8.67962e-86
1.0463e-86
-5.68819e-87
-2.9652e-87
-3.76746e-88
1.85663e-88
9.95403e-89
1.31327e-89
-5.99951e-90
-3.28516e-90
-4.44351e-91
1.9208e-91
1.06636e-91
1.46196e-92
-6.09639e-93
-3.40541e-93
-4.68257e-94
1.91885e-94
1.07017e-94
1.46105e-95
-5.99006e-96
-3.30994e-96
-4.44198e-97
1.85433e-97
1.00761e-97
1.31567e-98
-5.69059e-99
-3.01902e-99
-3.79414e-100
1.73029e-100
8.90244e-101
1.06411e-101
-5.20933e-102
-2.58319e-102
-2.89727e-103
1.55176e-103
7.37426e-104
7.63715e-105
-4.56982e-105
-2.07049e-105
-1.9409e-106
1.32939e-106
5.71578e-107
4.7244e-108
-3.81715e-108
-1.55077e-108
-1.08944e-109
1.081e-109
4.13308e-110
2.33266e-111
-3.01714e-111
-1.08145e-111
-4.44253e-113
8.29385e-113
2.77623e-113
6.65608e-115
-2.24405e-114
-6.98656e-115
-3.38661e-117
5.97265e-116
1.7219e-116
-2.87536e-118
-1.56284e-117
-4.15112e-118
1.71115e-119
4.01823e-119
9.77426e-120
-6.79529e-121
-1.01461e-120
-2.24346e-121
2.30584e-122
2.51457e-122
5.00669e-123
-7.14881e-124
-6.11343e-124
-1.08251e-124
2.08245e-125
1.4571e-125
2.25587e-126
-5.78189e-127
-3.40234e-127
-4.49522e-128
1.54279e-128
7.77689e-129
8.45214e-130
-3.97659e-130
-1.73846e-130
-1.46255e-131
9.93427e-132
3.79629e-132
2.20062e-133
-2.41075e-133
-8.08666e-134
-2.38806e-135
5.69126e-135
1.67724e-135
-3.55731e-138
-1.30836e-136
-3.37892e-137
1.29645e-138
2.93058e-138
6.58939e-139
-5.3604e-140
-6.39717e-140
-1.23788e-140
1.66588e-141
1.36081e-141
2.22341e-142
-4.54263e-143
-2.81981e-143
-3.77128e-144
1.14244e-144
5.68778e-145
5.90351e-146
-2.70955e-146
-1.11553e-146
-8.10721e-148
6.13193e-148
2.12391e-148
8.21503e-150
-1.22711e-149
)
;

boundaryField
{
    sides
    {
        type            zeroGradient;
    }
    empty
    {
        type            empty;
    }
}


// ************************************************************************* //
