/*--------------------------------*- C++ -*----------------------------------*\
| =========                 |                                                 |
| \\      /  F ield         | OpenFOAM: The Open Source CFD Toolbox           |
|  \\    /   O peration     | Version:  2312                                  |
|   \\  /    A nd           | Website:  www.openfoam.com                      |
|    \\/     M anipulation  |                                                 |
\*---------------------------------------------------------------------------*/
FoamFile
{
    version     2.0;
    format      ascii;
    arch        "LSB;label=32;scalar=64";
    class       volScalarField;
    location    "4.4";
    object      T;
}
// * * * * * * * * * * * * * * * * * * * * * * * * * * * * * * * * * * * * * //

dimensions      [0 0 0 1 0 0 0];

internalField   nonuniform List<scalar> 
1000
(
2.13744e-73
3.17664e-73
5.79938e-73
1.13002e-72
2.23859e-72
4.44916e-72
8.84151e-72
1.7553e-71
3.48064e-71
6.89329e-71
1.36348e-70
2.69352e-70
5.31426e-70
1.04717e-69
2.06081e-69
4.05049e-69
7.95107e-69
1.5588e-68
3.05213e-68
5.96846e-68
1.16564e-67
2.27361e-67
4.42904e-67
8.61681e-67
1.67428e-66
3.24901e-66
6.29675e-66
1.21877e-65
2.35598e-65
4.54841e-65
8.76975e-65
1.68871e-64
3.24758e-64
6.23739e-64
1.19642e-63
2.29193e-63
4.38485e-63
8.37808e-63
1.59871e-62
3.04668e-62
5.79855e-62
1.10216e-61
2.0922e-61
3.96637e-61
7.50956e-61
1.41993e-60
2.68132e-60
5.05663e-60
9.52363e-60
1.79131e-59
3.36488e-59
6.31239e-59
1.18262e-58
2.2127e-58
4.13452e-58
7.7153e-58
1.43782e-57
2.67596e-57
4.97369e-57
9.23208e-57
1.71136e-56
3.16815e-56
5.85721e-56
1.08142e-55
1.99398e-55
3.67167e-55
6.75189e-55
1.23995e-54
2.27405e-54
4.16498e-54
7.61802e-54
1.39151e-53
2.53831e-53
4.624e-53
8.41209e-53
1.52828e-52
2.77278e-52
5.02387e-52
9.09018e-52
1.64255e-51
2.96396e-51
5.34117e-51
9.61191e-51
1.72739e-50
3.10013e-50
5.55617e-50
9.94437e-50
1.7774e-49
3.17247e-49
5.65478e-49
1.00655e-48
1.78921e-48
3.17607e-48
5.63015e-48
9.96669e-48
1.76191e-47
3.1104e-47
5.48339e-47
9.65342e-47
1.69712e-46
2.97948e-46
5.22356e-46
9.14512e-46
1.59885e-45
2.79141e-45
4.86669e-45
8.47301e-45
1.47311e-44
2.55757e-44
4.43417e-44
7.67695e-44
1.32726e-43
2.29148e-43
3.95062e-43
6.80149e-43
1.16932e-42
2.00747e-42
3.44155e-42
5.89177e-42
1.00722e-41
1.71945e-41
2.93117e-41
4.98973e-41
8.48199e-41
1.4398e-40
2.44056e-40
4.13105e-40
6.98253e-40
1.17855e-39
1.98638e-39
3.34316e-39
5.61866e-39
9.42947e-39
1.58023e-38
2.64443e-38
4.41896e-38
7.37371e-38
1.22865e-37
2.0443e-37
3.39655e-37
5.63516e-37
9.33571e-37
1.54441e-36
2.55123e-36
4.20834e-36
6.93174e-36
1.14011e-35
1.87249e-35
3.07088e-35
5.02893e-35
8.22352e-35
1.34279e-34
2.1894e-34
3.5646e-34
5.79513e-34
9.40764e-34
1.52498e-33
2.46838e-33
3.98956e-33
6.43874e-33
1.03762e-32
1.66972e-32
2.68291e-32
4.3046e-32
6.89635e-32
1.10323e-31
1.76227e-31
2.81087e-31
4.47677e-31
7.11948e-31
1.13055e-30
1.79262e-30
2.8382e-30
4.48697e-30
7.08303e-30
1.11645e-29
1.75718e-29
2.7615e-29
4.33338e-29
6.78988e-29
1.06231e-28
1.65954e-28
2.58868e-28
4.03199e-28
6.27062e-28
9.73757e-28
1.50987e-27
2.33764e-27
3.61379e-27
5.57822e-27
8.59757e-27
1.32313e-26
2.03317e-26
3.11954e-26
4.77917e-26
7.31069e-26
1.11663e-25
1.70295e-25
2.5932e-25
3.94289e-25
5.98596e-25
9.07391e-25
1.37339e-24
2.07557e-24
3.13197e-24
4.71886e-24
7.09897e-24
1.06633e-23
1.59928e-23
2.39495e-23
3.581e-23
5.34624e-23
7.96943e-23
1.18616e-22
1.76275e-22
2.61561e-22
3.87516e-22
5.73245e-22
8.46686e-22
1.24864e-21
1.83858e-21
2.70309e-21
3.96797e-21
5.81576e-21
8.51088e-21
1.24358e-20
1.81425e-20
2.64273e-20
3.84357e-20
5.58142e-20
8.09249e-20
1.17151e-19
1.6933e-19
2.44371e-19
3.52119e-19
5.06588e-19
7.27685e-19
1.04365e-18
1.49449e-18
2.13674e-18
3.05024e-18
4.34748e-18
6.18675e-18
8.79041e-18
1.24703e-17
1.7663e-17
2.49788e-17
3.52694e-17
4.97215e-17
6.99857e-17
9.8354e-17
1.38004e-16
1.93335e-16
2.70425e-16
3.77658e-16
5.26582e-16
7.33078e-16
1.01894e-15
1.41405e-15
1.95927e-15
2.71042e-15
3.74364e-15
5.16255e-15
7.10802e-15
9.77114e-15
1.34108e-14
1.8377e-14
2.51425e-14
3.43441e-14
4.6839e-14
6.37784e-14
8.67061e-14
1.17689e-13
1.59489e-13
2.15792e-13
2.91508e-13
3.93163e-13
5.29424e-13
7.11774e-13
9.55407e-13
1.28039e-12
1.71318e-12
2.2886e-12
3.05242e-12
4.06465e-12
5.40393e-12
7.173e-12
9.50599e-12
1.25776e-11
1.66152e-11
2.19137e-11
2.88556e-11
3.79358e-11
4.97934e-11
6.52526e-11
8.53742e-11
1.11521e-10
1.45443e-10
1.89378e-10
2.46189e-10
3.19529e-10
4.14051e-10
5.35671e-10
6.91902e-10
8.9226e-10
1.14879e-09
1.47669e-09
1.89513e-09
2.42822e-09
3.10627e-09
3.96725e-09
5.05871e-09
6.44006e-09
8.1854e-09
1.0387e-08
1.31595e-08
1.66451e-08
2.10201e-08
2.65021e-08
3.336e-08
4.19247e-08
5.26032e-08
6.58953e-08
8.24127e-08
1.02904e-07
1.28283e-07
1.59664e-07
1.98399e-07
2.46135e-07
3.04862e-07
3.76993e-07
4.65437e-07
5.73703e-07
7.0601e-07
8.67429e-07
1.06403e-06
1.30309e-06
1.59328e-06
1.94495e-06
2.37042e-06
2.88429e-06
3.5039e-06
4.24975e-06
5.14605e-06
6.22135e-06
7.5092e-06
9.04905e-06
1.08871e-05
1.30774e-05
1.5683e-05
1.87775e-05
2.24464e-05
2.6789e-05
3.19203e-05
3.79733e-05
4.51016e-05
5.34819e-05
6.33176e-05
7.48417e-05
8.83214e-05
0.000104062
0.000122411
0.000143765
0.000168574
0.000197347
0.000230663
0.000269172
0.000313609
0.000364799
0.000423668
0.000491254
0.000568714
0.000657341
0.000758572
0.000874004
0.0010054
0.00115473
0.00132413
0.00151598
0.00173289
0.00197771
0.00225356
0.00256384
0.00291227
0.00330286
0.00373996
0.00422827
0.00477288
0.00537923
0.00605316
0.00680094
0.00762923
0.00854513
0.00955618
0.0106704
0.0118961
0.0132422
0.0147181
0.0163334
0.0180982
0.0200232
0.0221193
0.0243977
0.0268701
0.0295484
0.0324448
0.0355716
0.0389415
0.042567
0.0464609
0.0506359
0.0551046
0.0598794
0.0649725
0.0703959
0.076161
0.0822789
0.08876
0.0956141
0.10285
0.110476
0.1185
0.126927
0.135763
0.145011
0.154674
0.164754
0.175251
0.186161
0.197484
0.209213
0.221343
0.233866
0.246772
0.26005
0.273687
0.28767
0.301981
0.316603
0.331518
0.346706
0.362143
0.377809
0.393678
0.409725
0.425925
0.442251
0.458675
0.47517
0.491707
0.508258
0.524794
0.541287
0.557708
0.574029
0.590224
0.606264
0.622124
0.637778
0.653203
0.668375
0.683272
0.697874
0.71216
0.726114
0.739718
0.752958
0.76582
0.778291
0.790363
0.802025
0.81327
0.824092
0.834487
0.844451
0.853984
0.863083
0.871749
0.879984
0.887791
0.895172
0.902132
0.908676
0.914809
0.920536
0.925864
0.930799
0.935348
0.939516
0.943311
0.946738
0.949804
0.952513
0.954872
0.956885
0.958555
0.959888
0.960884
0.961547
0.961879
0.961879
0.961547
0.960884
0.959888
0.958555
0.956885
0.954872
0.952513
0.949804
0.946738
0.943311
0.939516
0.935348
0.930799
0.925864
0.920536
0.914809
0.908676
0.902132
0.895172
0.887791
0.879984
0.871749
0.863083
0.853984
0.844451
0.834487
0.824092
0.81327
0.802025
0.790363
0.778291
0.76582
0.752958
0.739718
0.726114
0.71216
0.697874
0.683272
0.668375
0.653203
0.637778
0.622124
0.606264
0.590224
0.574029
0.557708
0.541287
0.524794
0.508258
0.491707
0.47517
0.458675
0.442251
0.425925
0.409725
0.393678
0.377809
0.362143
0.346706
0.331518
0.316603
0.301981
0.28767
0.273687
0.26005
0.246772
0.233866
0.221343
0.209213
0.197484
0.186161
0.175251
0.164754
0.154674
0.145011
0.135763
0.126927
0.1185
0.110476
0.10285
0.0956141
0.08876
0.0822789
0.076161
0.0703959
0.0649725
0.0598794
0.0551046
0.0506359
0.0464609
0.042567
0.0389415
0.0355716
0.0324448
0.0295484
0.0268701
0.0243977
0.0221193
0.0200232
0.0180982
0.0163334
0.0147181
0.0132422
0.0118961
0.0106704
0.00955618
0.00854513
0.00762923
0.00680094
0.00605316
0.00537923
0.00477288
0.00422827
0.00373996
0.00330286
0.00291227
0.00256384
0.00225356
0.00197771
0.00173289
0.00151598
0.00132413
0.00115473
0.0010054
0.000874004
0.000758572
0.000657341
0.000568714
0.000491254
0.000423668
0.000364799
0.000313609
0.000269172
0.000230663
0.000197347
0.000168574
0.000143765
0.000122411
0.000104062
8.83214e-05
7.48417e-05
6.33176e-05
5.34819e-05
4.51016e-05
3.79733e-05
3.19203e-05
2.6789e-05
2.24464e-05
1.87775e-05
1.5683e-05
1.30774e-05
1.08871e-05
9.04905e-06
7.5092e-06
6.22135e-06
5.14605e-06
4.24975e-06
3.5039e-06
2.88429e-06
2.37042e-06
1.94495e-06
1.59328e-06
1.30309e-06
1.06403e-06
8.67429e-07
7.0601e-07
5.73703e-07
4.65437e-07
3.76993e-07
3.04862e-07
2.46135e-07
1.98399e-07
1.59664e-07
1.28283e-07
1.02904e-07
8.24127e-08
6.58953e-08
5.26032e-08
4.19247e-08
3.336e-08
2.65021e-08
2.10201e-08
1.66451e-08
1.31595e-08
1.0387e-08
8.1854e-09
6.44006e-09
5.05871e-09
3.96725e-09
3.10627e-09
2.42822e-09
1.89513e-09
1.47669e-09
1.14879e-09
8.9226e-10
6.91902e-10
5.35671e-10
4.14051e-10
3.19529e-10
2.46189e-10
1.89378e-10
1.45443e-10
1.11521e-10
8.53742e-11
6.52526e-11
4.97934e-11
3.79358e-11
2.88556e-11
2.19137e-11
1.66152e-11
1.25776e-11
9.50599e-12
7.173e-12
5.40393e-12
4.06465e-12
3.05242e-12
2.2886e-12
1.71318e-12
1.28039e-12
9.55407e-13
7.11774e-13
5.29424e-13
3.93163e-13
2.91508e-13
2.15792e-13
1.59489e-13
1.17689e-13
8.67061e-14
6.37784e-14
4.6839e-14
3.43441e-14
2.51425e-14
1.8377e-14
1.34108e-14
9.77114e-15
7.10802e-15
5.16255e-15
3.74364e-15
2.71042e-15
1.95927e-15
1.41405e-15
1.01894e-15
7.33078e-16
5.26582e-16
3.77658e-16
2.70425e-16
1.93335e-16
1.38004e-16
9.8354e-17
6.99857e-17
4.97215e-17
3.52694e-17
2.49788e-17
1.7663e-17
1.24703e-17
8.79041e-18
6.18675e-18
4.34748e-18
3.05024e-18
2.13674e-18
1.49449e-18
1.04365e-18
7.27685e-19
5.06588e-19
3.52119e-19
2.44371e-19
1.6933e-19
1.17151e-19
8.09249e-20
5.58142e-20
3.84357e-20
2.64273e-20
1.81425e-20
1.24358e-20
8.51088e-21
5.81576e-21
3.96797e-21
2.70309e-21
1.83858e-21
1.24864e-21
8.46686e-22
5.73245e-22
3.87516e-22
2.61561e-22
1.76275e-22
1.18616e-22
7.96943e-23
5.34624e-23
3.581e-23
2.39495e-23
1.59928e-23
1.06633e-23
7.09897e-24
4.71886e-24
3.13197e-24
2.07557e-24
1.37339e-24
9.07391e-25
5.98596e-25
3.94289e-25
2.5932e-25
1.70295e-25
1.11663e-25
7.31069e-26
4.77917e-26
3.11954e-26
2.03317e-26
1.32313e-26
8.59757e-27
5.57822e-27
3.61379e-27
2.33764e-27
1.50987e-27
9.73757e-28
6.27062e-28
4.03199e-28
2.58868e-28
1.65954e-28
1.06231e-28
6.78988e-29
4.33338e-29
2.7615e-29
1.75718e-29
1.11645e-29
7.08303e-30
4.48697e-30
2.8382e-30
1.79262e-30
1.13055e-30
7.11948e-31
4.47677e-31
2.81087e-31
1.76227e-31
1.10323e-31
6.89635e-32
4.3046e-32
2.68291e-32
1.66972e-32
1.03762e-32
6.43874e-33
3.98956e-33
2.46838e-33
1.52498e-33
9.40764e-34
5.79513e-34
3.5646e-34
2.1894e-34
1.34279e-34
8.22352e-35
5.02893e-35
3.07088e-35
1.87249e-35
1.14011e-35
6.93174e-36
4.20834e-36
2.55123e-36
1.54441e-36
9.33571e-37
5.63516e-37
3.39655e-37
2.0443e-37
1.22865e-37
7.37371e-38
4.41896e-38
2.64443e-38
1.58023e-38
9.42947e-39
5.61866e-39
3.34316e-39
1.98638e-39
1.17855e-39
6.98253e-40
4.13105e-40
2.44056e-40
1.4398e-40
8.48199e-41
4.98973e-41
2.93117e-41
1.71945e-41
1.00722e-41
5.89177e-42
3.44155e-42
2.00747e-42
1.16932e-42
6.80149e-43
3.95062e-43
2.29148e-43
1.32726e-43
7.67695e-44
4.43417e-44
2.55757e-44
1.47311e-44
8.47301e-45
4.86669e-45
2.79141e-45
1.59885e-45
9.14512e-46
5.22356e-46
2.97948e-46
1.69712e-46
9.65342e-47
5.48339e-47
3.1104e-47
1.76191e-47
9.96669e-48
5.63015e-48
3.17607e-48
1.78921e-48
1.00655e-48
5.65478e-49
3.17247e-49
1.7774e-49
9.94437e-50
5.55617e-50
3.10013e-50
1.72739e-50
9.61191e-51
5.34117e-51
2.96396e-51
1.64255e-51
9.09018e-52
5.02387e-52
2.77278e-52
1.52828e-52
8.41209e-53
4.624e-53
2.53831e-53
1.39151e-53
7.61802e-54
4.16498e-54
2.27405e-54
1.23995e-54
6.75189e-55
3.67167e-55
1.99398e-55
1.08142e-55
5.85721e-56
3.16815e-56
1.71136e-56
9.23208e-57
4.97369e-57
2.67596e-57
1.43782e-57
7.7153e-58
4.13452e-58
2.2127e-58
1.18262e-58
6.31239e-59
3.36488e-59
1.79131e-59
9.52363e-60
5.05663e-60
2.68132e-60
1.41993e-60
7.50956e-61
3.96637e-61
2.0922e-61
1.10216e-61
5.79855e-62
3.04668e-62
1.59871e-62
8.37808e-63
4.38485e-63
2.29193e-63
1.19642e-63
6.23739e-64
3.24758e-64
1.68871e-64
8.76975e-65
4.54841e-65
2.35598e-65
1.21877e-65
6.29675e-66
3.24901e-66
1.67428e-66
8.61681e-67
4.42904e-67
2.27361e-67
1.16564e-67
5.96846e-68
3.05213e-68
1.5588e-68
7.95107e-69
4.05049e-69
2.06081e-69
1.04717e-69
5.31426e-70
2.69352e-70
1.36348e-70
6.89329e-71
3.48064e-71
1.7553e-71
8.84151e-72
4.44916e-72
2.23859e-72
1.13002e-72
5.79938e-73
3.17664e-73
2.13744e-73
)
;

boundaryField
{
    sides
    {
        type            zeroGradient;
    }
    empty
    {
        type            empty;
    }
}


// ************************************************************************* //
