/*--------------------------------*- C++ -*----------------------------------*\
| =========                 |                                                 |
| \\      /  F ield         | OpenFOAM: The Open Source CFD Toolbox           |
|  \\    /   O peration     | Version:  2312                                  |
|   \\  /    A nd           | Website:  www.openfoam.com                      |
|    \\/     M anipulation  |                                                 |
\*---------------------------------------------------------------------------*/
FoamFile
{
    version     2.0;
    format      ascii;
    arch        "LSB;label=32;scalar=64";
    class       volScalarField;
    location    "3.8";
    object      T;
}
// * * * * * * * * * * * * * * * * * * * * * * * * * * * * * * * * * * * * * //

dimensions      [0 0 0 1 0 0 0];

internalField   nonuniform List<scalar> 
1000
(
0
0
0
0
0
0
0
0
0
0
0
0
0
0
0
0
0
0
0
0
0
0
0
0
0
0
0
0
0
0
0
0
0
0
0
0
0
0
0
0
0
0
0
0
0
0
0
0
0
0
0
0
0
0
0
0
0
0
0
0
0
0
0
0
0
0
0
0
0
0
0
0
0
0
0
0
0
0
0
0
0
0
0
0
0
0
0
0
0
0
0
0
0
0
0
0
0
0
0
0
0
0
0
0
0
0
0
0
0
0
0
0
0
0
0
0
0
0
0
0
0
0
0
0
0
0
0
0
0
0
0
0
0
0
0
0
0
0
0
0
0
0
0
0
0
0
0
0
0
0
0
0
0
0
0
0
0
0
0
0
0
0
0
0
0
0
0
0
0
0
0
0
0
0
0
0
0
0
0
0
0
0
0
0
0
0
0
0
0
0
0
0
0
0
0
0
0
0
0
0
0
0
0
0
0
0
0
0
0
0
0
0
0
0
0
0
0
0
0
0
0
0
0
0
0
0
0
0
0
0
0
0
0
6.91692e-323
7.9841e-321
6.18916e-319
4.74685e-317
3.6242e-315
2.75482e-313
2.08468e-311
1.57051e-309
1.17785e-307
8.79374e-306
6.53558e-304
4.83516e-302
3.56078e-300
2.6102e-298
1.90454e-296
1.38318e-294
9.9985e-293
7.19357e-291
5.15107e-289
3.67099e-287
2.6037e-285
1.83785e-283
1.29101e-281
9.02475e-280
6.27796e-278
4.34578e-276
2.99344e-274
2.05171e-272
1.39924e-270
9.49479e-269
6.41041e-267
4.30605e-265
2.87776e-263
1.91337e-261
1.26561e-259
8.3281e-258
5.45157e-256
3.54989e-254
2.29939e-252
1.4815e-250
9.49442e-249
6.052e-247
3.83689e-245
2.41934e-243
1.51717e-241
9.46199e-240
5.86844e-238
3.61944e-236
2.21985e-234
1.3538e-232
8.20959e-231
4.95e-229
2.96751e-227
1.76875e-225
1.04812e-223
6.17466e-222
3.6162e-220
2.10531e-218
1.21838e-216
7.00875e-215
4.00746e-213
2.27747e-211
1.28639e-209
7.22125e-208
4.02859e-206
2.23345e-204
1.23045e-202
6.73594e-201
3.66403e-199
1.98028e-197
1.06337e-195
5.67292e-194
3.00662e-192
1.583e-190
8.27918e-189
4.30112e-187
2.21943e-185
1.13748e-183
5.7899e-182
2.92683e-180
1.46927e-178
7.32419e-177
3.62536e-175
1.78176e-173
8.6943e-172
4.21191e-170
2.02563e-168
9.67061e-167
4.58283e-165
2.15563e-163
1.00635e-161
4.66264e-160
2.14386e-158
9.78174e-157
4.42855e-155
1.98933e-153
8.86587e-152
3.91992e-150
1.71927e-148
7.47984e-147
3.22769e-145
1.38137e-143
5.86299e-142
2.46765e-140
1.02984e-138
4.26136e-137
1.74817e-135
7.10951e-134
2.86604e-132
1.14519e-130
4.5351e-129
1.77981e-127
6.92154e-126
2.66706e-124
1.01818e-122
3.8507e-121
1.44257e-119
5.35272e-118
1.96703e-116
7.15815e-115
2.57931e-113
9.20176e-112
3.24982e-110
1.13611e-108
3.93105e-107
1.34609e-105
4.56105e-104
1.52909e-102
5.07136e-101
1.66375e-99
5.39841e-98
1.73223e-96
5.49604e-95
1.72401e-93
5.34582e-92
1.63838e-90
4.96224e-89
1.48504e-87
4.3907e-86
1.28231e-84
3.69871e-83
1.0535e-81
2.96258e-80
8.22404e-79
2.25322e-77
6.09181e-76
1.62492e-74
4.27543e-73
1.10944e-71
2.83866e-70
7.16016e-69
1.78007e-67
4.36075e-66
1.05244e-64
2.50174e-63
5.8559e-62
1.3494e-60
3.06039e-59
6.82942e-58
1.49914e-56
3.23618e-55
6.86792e-54
1.43248e-52
2.93555e-51
5.9086e-50
1.16769e-48
2.26501e-47
4.31074e-46
8.04657e-45
1.47257e-43
2.64102e-42
4.63997e-41
7.98202e-40
1.3439e-38
2.21343e-37
3.56446e-36
5.60949e-35
8.62214e-34
1.29366e-32
1.89354e-31
2.70213e-30
3.75686e-29
5.08539e-28
6.69708e-27
8.57372e-26
1.06615e-24
1.28662e-23
1.50546e-22
1.70627e-21
1.87123e-20
1.98349e-19
2.02973e-18
2.00262e-17
1.90248e-16
1.73767e-15
1.52354e-14
1.28009e-13
1.02878e-12
7.89289e-12
5.76805e-11
4.00559e-10
2.63641e-09
1.6399e-08
9.60959e-08
5.2862e-07
2.71918e-06
1.30224e-05
5.77806e-05
0.000236232
0.000884498
0.00301218
0.00925957
0.025482
0.0622352
0.133758
0.251237
0.411169
0.588831
0.748763
0.866242
0.937765
0.974518
0.99074
0.996988
0.999116
0.999764
0.999942
0.999987
0.999997
0.999999
1
1
1
1
1
1
1
1
1
1
1
1
1
1
1
1
1
1
1
1
1
1
1
1
1
1
1
1
1
1
1
1
1
1
1
1
1
1
1
1
1
1
1
1
1
1
1
1
1
1
1
1
1
1
1
1
1
1
1
1
1
1
1
1
1
1
1
1
1
1
1
1
1
1
0.999999
0.999997
0.999987
0.999942
0.999764
0.999116
0.996988
0.99074
0.974518
0.937765
0.866242
0.748763
0.588831
0.411169
0.251237
0.133758
0.0622352
0.025482
0.00925957
0.00301218
0.000884498
0.000236232
5.77806e-05
1.30224e-05
2.71918e-06
5.2862e-07
9.60959e-08
1.6399e-08
2.63641e-09
4.00559e-10
5.76805e-11
7.89289e-12
1.02878e-12
1.28009e-13
1.52354e-14
1.73767e-15
1.90248e-16
2.00262e-17
2.02973e-18
1.98349e-19
1.87123e-20
1.70627e-21
1.50546e-22
1.28662e-23
1.06615e-24
8.57372e-26
6.69708e-27
5.08539e-28
3.75686e-29
2.70213e-30
1.89354e-31
1.29366e-32
8.62214e-34
5.60949e-35
3.56446e-36
2.21343e-37
1.3439e-38
7.98202e-40
4.63997e-41
2.64102e-42
1.47257e-43
8.04657e-45
4.31074e-46
2.26501e-47
1.16769e-48
5.9086e-50
2.93555e-51
1.43248e-52
6.86792e-54
3.23618e-55
1.49914e-56
6.82942e-58
3.06039e-59
1.3494e-60
5.8559e-62
2.50174e-63
1.05244e-64
4.36075e-66
1.78007e-67
7.16016e-69
2.83866e-70
1.10944e-71
4.27543e-73
1.62492e-74
6.09181e-76
2.25322e-77
8.22404e-79
2.96258e-80
1.0535e-81
3.69871e-83
1.28231e-84
4.3907e-86
1.48504e-87
4.96224e-89
1.63838e-90
5.34582e-92
1.72401e-93
5.49604e-95
1.73223e-96
5.39841e-98
1.66375e-99
5.07136e-101
1.52909e-102
4.56105e-104
1.34609e-105
3.93105e-107
1.13611e-108
3.24982e-110
9.20176e-112
2.57931e-113
7.15815e-115
1.96703e-116
5.35272e-118
1.44257e-119
3.8507e-121
1.01818e-122
2.66706e-124
6.92154e-126
1.77981e-127
4.5351e-129
1.14519e-130
2.86604e-132
7.10951e-134
1.74817e-135
4.26136e-137
1.02984e-138
2.46765e-140
5.86299e-142
1.38137e-143
3.22769e-145
7.47984e-147
1.71927e-148
3.91992e-150
8.86587e-152
1.98933e-153
4.42855e-155
9.78174e-157
2.14386e-158
4.66264e-160
1.00635e-161
2.15563e-163
4.58283e-165
9.67061e-167
2.02563e-168
4.21191e-170
8.6943e-172
1.78176e-173
3.62536e-175
7.32419e-177
1.46927e-178
2.92683e-180
5.7899e-182
1.13748e-183
2.21943e-185
4.30112e-187
8.27918e-189
1.583e-190
3.00662e-192
5.67292e-194
1.06337e-195
1.98028e-197
3.66403e-199
6.73594e-201
1.23045e-202
2.23345e-204
4.02859e-206
7.22125e-208
1.28639e-209
2.27747e-211
4.00746e-213
7.00875e-215
1.21838e-216
2.10531e-218
3.6162e-220
6.17466e-222
1.04812e-223
1.76875e-225
2.96751e-227
4.95e-229
8.20959e-231
1.3538e-232
2.21985e-234
3.61944e-236
5.86844e-238
9.46199e-240
1.51717e-241
2.41934e-243
3.83689e-245
6.052e-247
9.49442e-249
1.4815e-250
2.29939e-252
3.54989e-254
5.45157e-256
8.3281e-258
1.26561e-259
1.91337e-261
2.87776e-263
4.30605e-265
6.41041e-267
9.49479e-269
1.39924e-270
2.05171e-272
2.99344e-274
4.34578e-276
6.27796e-278
9.02475e-280
1.29101e-281
1.83785e-283
2.6037e-285
3.67099e-287
5.15107e-289
7.19357e-291
9.9985e-293
1.38318e-294
1.90454e-296
2.6102e-298
3.56078e-300
4.83516e-302
6.53558e-304
8.79374e-306
1.17785e-307
1.57051e-309
2.08468e-311
2.75482e-313
3.6242e-315
4.74685e-317
6.18916e-319
7.9841e-321
6.91692e-323
0
0
0
0
0
0
0
0
0
0
0
0
0
0
0
0
0
0
0
0
0
0
0
0
0
0
0
0
0
0
0
0
0
0
0
0
0
0
0
0
0
0
0
0
0
0
0
0
0
0
0
0
0
0
0
0
0
0
0
0
0
0
0
0
0
0
0
0
0
0
0
0
0
0
0
0
0
0
0
0
0
0
0
0
0
0
0
0
0
0
0
0
0
0
0
0
0
0
0
0
0
0
0
0
0
0
0
0
0
0
0
0
0
0
0
0
0
0
0
0
0
0
0
0
0
0
0
0
0
0
0
0
0
0
0
0
0
0
0
0
0
0
0
0
0
0
0
0
0
0
0
0
0
0
0
0
0
0
0
0
0
0
0
0
0
0
0
0
0
0
0
0
0
0
0
0
0
0
0
0
0
0
0
0
0
0
0
0
0
0
0
0
0
0
0
0
0
0
0
0
0
0
0
0
0
0
0
0
0
0
0
0
0
0
0
0
0
0
0
0
0
0
0
0
0
0
0
0
0
0
0
0
0
)
;

boundaryField
{
    sides
    {
        type            zeroGradient;
    }
    empty
    {
        type            empty;
    }
}


// ************************************************************************* //
