/*--------------------------------*- C++ -*----------------------------------*\
| =========                 |                                                 |
| \\      /  F ield         | OpenFOAM: The Open Source CFD Toolbox           |
|  \\    /   O peration     | Version:  2312                                  |
|   \\  /    A nd           | Website:  www.openfoam.com                      |
|    \\/     M anipulation  |                                                 |
\*---------------------------------------------------------------------------*/
FoamFile
{
    version     2.0;
    format      ascii;
    arch        "LSB;label=32;scalar=64";
    class       volScalarField;
    location    "3.6";
    object      T;
}
// * * * * * * * * * * * * * * * * * * * * * * * * * * * * * * * * * * * * * //

dimensions      [0 0 0 1 0 0 0];

internalField   nonuniform List<scalar> 
1000
(
6.59065e-12
-3.54478e-12
8.82979e-12
-1.25552e-11
2.05714e-11
-3.21585e-11
5.07413e-11
-7.94989e-11
1.24263e-10
-1.93508e-10
3.00324e-10
-4.64463e-10
7.15789e-10
-1.09919e-09
1.68192e-09
-2.56427e-09
3.89524e-09
-5.89528e-09
8.88908e-09
-1.33529e-08
1.99824e-08
-2.97889e-08
4.42362e-08
-6.54339e-08
9.64075e-08
-1.41476e-07
2.06776e-07
-3.00985e-07
4.3631e-07
-6.29842e-07
9.05384e-07
-1.29592e-06
1.84689e-06
-2.6206e-06
3.70198e-06
-5.20614e-06
7.28818e-06
-1.01559e-05
1.40859e-05
-1.94442e-05
2.67118e-05
-3.6517e-05
4.96744e-05
-6.7233e-05
9.05334e-05
-0.000121276
0.000161601
-0.000214178
0.000282309
-0.000370041
0.000482285
-0.000624941
0.000805012
-0.00103072
0.00131158
-0.00165846
0.00208355
-0.00260031
0.00322325
-0.00396761
0.00484893
-0.00588238
0.00708191
-0.00845921
0.0100224
-0.0117747
0.0137126
-0.0158242
0.0180877
-0.0204694
0.0229226
-0.0253867
0.0277868
-0.0300344
0.0320292
-0.0336617
0.034818
-0.0353852
0.0352582
-0.0343482
0.0325913
-0.0299573
0.0264582
-0.0221549
0.0171616
-0.0116471
0.00583168
2.0695e-05
-0.00561532
0.0106444
-0.0148089
0.0178431
-0.0195403
0.0197763
-0.0185295
0.0158929
-0.0120775
0.00740339
-0.00227948
-0.00282925
0.00744367
-0.0111188
0.0134928
-0.014332
0.0135643
-0.0112965
0.00781088
-0.00353986
-0.000981538
0.00517968
-0.00851636
0.0105629
-0.0110636
0.00997807
-0.00749382
0.00400569
-6.14448e-05
-0.00371935
0.00674222
-0.00853515
0.00882976
-0.00761119
0.0051256
-0.00184139
-0.00163153
0.00465165
-0.00666572
0.0073156
-0.00651039
0.00444747
-0.00157574
-0.00149424
0.00411635
-0.00574597
0.00605831
-0.00502105
0.00290305
-0.000214619
-0.00240934
0.00435767
-0.00518848
0.0047362
-0.00315261
0.00086939
0.00151051
-0.003367
0.00422332
-0.00387059
0.00242206
-0.000280394
-0.00197502
0.00375134
-0.00461106
0.00439809
-0.00328379
0.00171765
-0.000295491
-0.000416691
5.05106e-05
0.00145725
-0.00385174
0.00664726
-0.00928797
0.0113311
-0.0125928
0.0132072
-0.0135778
0.0142358
-0.0156515
0.0180636
-0.021386
0.0252239
-0.0289963
0.0321208
-0.0341948
0.0351063
-0.0350358
0.0343475
-0.0334128
0.0324368
-0.0313561
0.0298515
-0.0274748
0.0238406
-0.0188101
0.0125912
-0.00571498
-0.00110428
0.00717216
-0.0119987
0.0153941
-0.0174415
0.0183678
-0.0183776
0.0175298
-0.0157189
0.0127717
-0.00861516
0.00343469
0.00225879
-0.0076972
0.0120427
-0.0146234
0.0151237
-0.0136526
0.0106687
-0.00680297
0.00266213
0.00130087
-0.00480529
0.00766565
-0.00968647
0.0106094
-0.0101614
0.00819287
-0.00483405
0.000578381
0.00377434
-0.00731566
0.00929707
-0.00935989
0.00763031
-0.00464475
0.00114757
0.00214286
-0.00470125
0.00624485
-0.00668327
0.00603749
-0.00439981
0.00196275
0.000917714
-0.00369864
0.00572942
-0.00643797
0.005555
-0.00326571
0.0001976
0.00277243
-0.0048182
0.00544224
-0.00461363
0.00271965
-0.00037657
-0.00179604
0.00333717
-0.00399947
0.00372489
-0.00260413
0.000865075
0.00111813
-0.00284772
0.00380598
-0.00363458
0.00231464
-0.000240246
-0.00188602
0.003315
-0.00355676
0.00258132
-0.000814863
-0.00106138
0.00240136
-0.00283048
0.00233158
-0.00117698
-0.000220422
0.0014484
-0.00218263
0.00223077
-0.00156729
0.00036802
0.000991153
-0.00202068
0.00229637
-0.00166397
0.000353531
0.00108729
-0.00203439
0.00208648
-0.00125931
-3.41863e-05
0.00120295
-0.00176783
0.00156448
-0.000768262
-0.000237946
0.00105346
-0.00140596
0.00121183
-0.00056889
-0.000283119
0.00102354
-0.0013459
0.00108395
-0.000318374
-0.000615444
0.00126371
-0.00128805
0.000665839
0.000277333
-0.00104148
0.00123481
-0.000790813
-1.29121e-05
0.000735014
-0.0010247
0.000792302
-0.000213009
-0.000403924
0.000779293
-0.000773581
0.000416256
0.000123628
-0.000600975
0.000785318
-0.000567441
3.77936e-05
0.000528181
-0.000805683
0.000617595
-6.43021e-05
-0.000520217
0.000776371
-0.00055483
1.28416e-05
0.00049853
-0.000672167
0.000436255
2.65401e-05
-0.000423565
0.000540914
-0.000350124
-1.08911e-05
0.000337296
-0.000463538
0.000331877
-1.39389e-05
-0.000316558
0.000463951
-0.000324318
-3.07112e-05
0.00037551
-0.000472002
0.000244093
0.000152145
-0.000433771
0.000401515
-9.01199e-05
-0.000263684
0.000407444
-0.000259684
-4.79915e-05
0.000289932
-0.000315317
0.000136164
0.000109513
-0.000264274
0.000243776
-7.11147e-05
-0.000144274
0.000265524
-0.000206905
-2.09341e-06
0.000218414
-0.000277269
0.000122703
0.000131814
-0.000283021
0.000205896
3.5175e-05
-0.00023855
0.000239536
-4.95816e-05
-0.000163559
0.000228426
-0.000110715
-7.69241e-05
0.000184936
-0.000145648
6.58863e-06
0.000124113
-0.000157995
7.71839e-05
6.00064e-05
-0.000154142
0.000129451
3.39253e-06
-0.0001404
0.000161291
-3.93086e-05
-0.000121245
0.000173025
-6.62014e-05
-9.88175e-05
0.000166943
-7.93457e-05
-7.34994e-05
0.000147167
-8.35446e-05
-4.52036e-05
0.000119467
-8.45995e-05
-1.47852e-05
9.06074e-05
-8.73147e-05
1.50808e-05
6.70258e-05
-9.37759e-05
4.00954e-05
5.30629e-05
-0.000102579
5.57451e-05
4.94017e-05
-0.000109546
5.94573e-05
5.26392e-05
-0.000109935
5.24353e-05
5.6649e-05
-0.000101328
3.99209e-05
5.5578e-05
-8.5694e-05
2.91773e-05
4.72098e-05
-6.91298e-05
2.57607e-05
3.47028e-05
-5.88005e-05
3.00466e-05
2.51247e-05
-5.84445e-05
3.64946e-05
2.49806e-05
-6.53079e-05
3.69173e-05
3.52778e-05
-7.12054e-05
2.62936e-05
4.98359e-05
-6.79196e-05
7.13074e-06
5.89967e-05
-5.35524e-05
-1.15888e-05
5.6844e-05
-3.46052e-05
-2.116e-05
4.63186e-05
-2.09887e-05
-2.06696e-05
3.70322e-05
-1.7169e-05
-1.82345e-05
3.6375e-05
-1.73864e-05
-2.34129e-05
4.15709e-05
-1.0736e-05
-3.69069e-05
4.13289e-05
7.31251e-06
-4.82418e-05
2.72559e-05
2.85273e-05
-4.5695e-05
3.94256e-06
3.9089e-05
-2.92739e-05
-1.44625e-05
3.43221e-05
-1.16347e-05
-1.94239e-05
2.41002e-05
-3.76906e-06
-1.76384e-05
2.05079e-05
-1.73927e-06
-2.15251e-05
2.16444e-05
7.23222e-06
-3.08314e-05
1.38827e-05
2.48776e-05
-3.07493e-05
-7.45529e-06
3.55912e-05
-1.26092e-05
-2.72191e-05
2.62664e-05
1.06475e-05
-2.84496e-05
6.08258e-06
1.97591e-05
-1.58947e-05
-5.35558e-06
1.55609e-05
-7.90909e-06
-6.45642e-06
1.45637e-05
-6.70807e-06
-1.24868e-05
1.8259e-05
3.20813e-06
-2.38793e-05
9.23692e-06
2.19982e-05
-2.01717e-05
-1.39262e-05
2.60308e-05
2.94779e-06
-2.54018e-05
7.09389e-06
1.91471e-05
-1.31322e-05
-9.76173e-06
1.37115e-05
3.36826e-07
-9.16332e-06
6.45916e-06
1.21466e-06
-9.07843e-06
7.7307e-06
7.33662e-06
-1.53562e-05
-2.23378e-06
2.00192e-05
-4.50205e-06
-2.10418e-05
1.09643e-05
1.86982e-05
-1.55489e-05
-1.3973e-05
1.7264e-05
8.2022e-06
-1.58366e-05
-2.71044e-06
1.16411e-05
-1.47209e-06
-5.5093e-06
3.76998e-06
-1.50608e-06
-4.09511e-06
8.35401e-06
2.77515e-06
-1.41524e-05
-4.1625e-07
1.82829e-05
-2.25934e-06
-2.04154e-05
4.56664e-06
2.04802e-05
-5.97907e-06
-1.86099e-05
6.2054e-06
1.50742e-05
-5.21989e-06
-1.02258e-05
3.24901e-06
4.4665e-06
-7.21238e-07
1.76356e-06
-1.8125e-06
-7.98147e-06
3.77967e-06
1.36538e-05
-4.6988e-06
-1.82025e-05
4.29136e-06
2.10394e-05
-2.57596e-06
-2.16414e-05
-7.75706e-08
1.96656e-05
2.95886e-06
-1.50888e-05
-5.11467e-06
8.33829e-06
5.54312e-06
-3.62127e-07
-3.47018e-06
-7.41805e-06
-1.34051e-06
1.33191e-05
8.33097e-06
-1.57838e-05
-1.60591e-05
1.38896e-05
2.2386e-05
-7.84755e-06
-2.49974e-05
-7.12631e-07
2.22053e-05
8.8896e-06
-1.38211e-05
-1.32328e-05
1.74822e-06
1.09862e-05
1.01145e-05
-1.51288e-06
-1.69345e-05
-1.27183e-05
1.4889e-05
2.62966e-05
-3.37548e-06
-3.26335e-05
-1.36088e-05
2.70786e-05
2.8106e-05
-1.01758e-05
-3.14151e-05
-1.08878e-05
1.90664e-05
2.44275e-05
4.90922e-06
-2.02482e-05
-2.77014e-05
-2.93861e-06
3.35277e-05
3.34674e-05
-1.40493e-05
-5.07826e-05
-2.26151e-05
3.82459e-05
5.23938e-05
1.86591e-06
-4.94964e-05
-4.33174e-05
8.31626e-06
5.04e-05
4.38037e-05
-7.77742e-06
-6.00953e-05
-5.654e-05
1.36728e-05
8.27394e-05
6.62624e-05
-3.05411e-05
-0.000103538
-6.75286e-05
4.2838e-05
0.000113654
7.50479e-05
-3.67216e-05
-0.000122664
-0.000104592
1.47618e-05
0.000142096
0.000155103
1.61142e-05
-0.000164948
-0.000213863
-6.37231e-05
0.000165278
0.000270712
0.000150506
-0.000111801
-0.000316018
-0.000292037
-2.35131e-05
0.000318391
0.000468542
0.000262155
-0.000203184
-0.000597618
-0.000595436
-0.000135105
0.000511867
0.000911676
0.000745819
2.17531e-05
-0.000889915
-0.00142116
-0.00112586
2.72198e-06
0.00143247
0.00232853
0.00201555
0.000392679
-0.00193398
-0.00385975
-0.0042356
-0.00240463
0.00137518
0.0058269
0.00899165
0.00893223
0.00453746
-0.00387662
-0.014349
-0.0234656
-0.026902
-0.0202143
0.000289546
0.0368305
0.0897832
0.157694
0.237599
0.325501
0.416935
0.507536
0.593543
0.672121
0.741451
0.800655
0.849657
0.889026
0.9198
0.943258
0.960709
0.97336
0.982283
0.988424
0.992582
0.995365
0.997186
0.998319
0.998984
0.999377
0.999641
0.999833
0.999942
0.999964
0.99994
0.999938
0.999984
1.00004
1.00005
0.999997
0.999944
0.999949
1.00001
1.00007
1.00005
0.999978
0.99992
0.999942
1.00003
1.00009
1.00007
0.999966
0.999888
0.999916
1.00003
1.00013
1.00011
0.999979
0.999851
0.99985
0.999992
1.00016
1.0002
1.00006
0.999844
0.999732
0.99984
1.00011
1.00032
1.0003
1.00002
0.999672
0.999534
0.999749
1.0002
1.00059
1.00059
1.00014
0.999497
0.999082
0.999243
0.99998
1.0009
1.00142
1.00111
0.999989
0.998575
0.997683
0.997982
0.999594
1.00193
1.00387
1.00425
1.0024
0.998611
0.994174
0.991023
0.991075
0.995451
1.00386
1.01435
1.02348
1.02691
1.0202
0.999696
0.963177
0.910236
0.84231
0.762384
0.674483
0.583073
0.492486
0.406463
0.32786
0.25853
0.199352
0.150369
0.110984
0.0801809
0.0567175
0.0392937
0.0266686
0.0177359
0.0115603
0.00738629
0.00462691
0.00284193
0.00171171
0.00101103
0.000585634
0.000332663
0.000185299
0.000101202
5.41851e-05
2.84355e-05
1.46222e-05
7.36529e-06
3.63249e-06
1.75319e-06
8.27531e-07
3.81698e-07
1.71872e-07
7.54576e-08
3.22496e-08
1.33901e-08
5.38657e-09
2.09172e-09
7.7998e-10
2.77095e-10
9.25969e-11
2.84423e-11
7.64143e-12
1.54823e-12
5.41016e-14
-1.72793e-13
-1.28901e-13
-6.6891e-14
-2.92668e-14
-1.1341e-14
-3.93034e-15
-1.19851e-15
-3.02523e-16
-4.94884e-17
5.5088e-18
9.92611e-18
5.86036e-18
2.6061e-18
9.73141e-19
3.10007e-19
8.07749e-20
1.40878e-20
-7.78057e-22
-2.18426e-21
-1.28409e-21
-5.46112e-22
-1.89249e-22
-5.34317e-23
-1.09401e-23
-5.33919e-25
9.31446e-25
6.26452e-25
2.72561e-25
9.30428e-26
2.50281e-26
4.5034e-27
-1.11752e-28
-5.62605e-28
-3.17398e-28
-1.23699e-28
-3.73473e-29
-8.22213e-30
-7.18334e-31
4.66498e-31
3.41818e-31
1.44441e-31
4.55736e-32
1.04983e-32
1.13151e-33
-4.55748e-34
-3.68771e-34
-1.56693e-34
-4.84705e-35
-1.06183e-35
-8.92711e-37
5.81128e-37
4.02529e-37
1.58489e-37
4.49859e-38
8.37238e-39
3.77016e-41
-7.95439e-40
-4.21954e-40
-1.44246e-40
-3.47191e-41
-4.24926e-42
1.10431e-42
9.71316e-43
3.94376e-43
1.1045e-43
1.93981e-44
-4.32208e-46
-2.01381e-45
-9.73448e-46
-3.03162e-46
-6.24547e-47
-3.49499e-48
3.92306e-48
2.25159e-48
7.55112e-49
1.68705e-49
1.5142e-50
-7.58748e-51
-5.01253e-51
-1.75297e-51
-4.04489e-52
-4.10751e-53
1.54924e-53
1.09218e-53
3.84452e-54
8.79906e-55
8.59533e-56
-3.45095e-56
-2.34129e-56
-7.99543e-57
-1.74433e-57
-1.37763e-58
8.19145e-59
4.90795e-59
1.56984e-59
3.12002e-60
1.30481e-61
-1.95986e-61
-9.91794e-62
-2.87578e-62
-4.88927e-63
1.28928e-64
4.49806e-64
1.8961e-64
4.81752e-65
6.22779e-66
-1.06737e-66
-9.58876e-67
-3.35611e-67
-7.13393e-68
-4.85588e-69
3.43451e-69
1.85895e-69
5.3563e-70
8.71225e-71
-3.71467e-72
-8.22874e-72
-3.21709e-72
-7.40794e-73
-7.0342e-74
2.60676e-74
1.62236e-74
4.84881e-75
8.17481e-76
-1.92749e-77
-6.84325e-77
-2.6906e-77
-6.07982e-78
-5.32969e-79
2.24733e-79
1.30682e-79
3.70276e-80
5.62501e-81
-3.83402e-82
-5.58552e-82
-1.97838e-82
-3.97522e-83
-1.88749e-84
2.0598e-84
9.54542e-85
2.34653e-85
2.61112e-86
-6.07679e-87
-4.21557e-87
-1.23568e-87
-1.92726e-88
9.91003e-90
1.71249e-89
5.98136e-90
1.1494e-90
3.69826e-92
-6.38352e-92
-2.70604e-92
-6.09464e-93
-4.69319e-94
1.67534e-94
)
;

boundaryField
{
    sides
    {
        type            zeroGradient;
    }
    empty
    {
        type            empty;
    }
}


// ************************************************************************* //
