/*--------------------------------*- C++ -*----------------------------------*\
| =========                 |                                                 |
| \\      /  F ield         | OpenFOAM: The Open Source CFD Toolbox           |
|  \\    /   O peration     | Version:  2312                                  |
|   \\  /    A nd           | Website:  www.openfoam.com                      |
|    \\/     M anipulation  |                                                 |
\*---------------------------------------------------------------------------*/
FoamFile
{
    version     2.0;
    format      ascii;
    arch        "LSB;label=32;scalar=64";
    class       volScalarField;
    location    "2";
    object      T;
}
// * * * * * * * * * * * * * * * * * * * * * * * * * * * * * * * * * * * * * //

dimensions      [0 0 0 1 0 0 0];

internalField   nonuniform List<scalar> 
1000
(
1.39839e-12
1.4084e-12
1.43607e-12
1.4817e-12
1.54584e-12
1.62921e-12
1.73277e-12
1.85774e-12
2.00553e-12
2.17786e-12
2.37668e-12
2.60428e-12
2.86325e-12
3.15652e-12
3.48741e-12
3.85966e-12
4.27744e-12
4.74544e-12
5.26888e-12
5.85356e-12
6.50595e-12
7.23324e-12
8.04341e-12
8.94531e-12
9.94874e-12
1.10646e-11
1.23048e-11
1.36828e-11
1.52132e-11
1.69123e-11
1.87981e-11
2.08904e-11
2.32113e-11
2.57848e-11
2.86377e-11
3.17995e-11
3.53028e-11
3.91833e-11
4.34806e-11
4.82383e-11
5.35043e-11
5.93316e-11
6.57783e-11
7.29086e-11
8.07929e-11
8.9509e-11
9.91421e-11
1.09786e-10
1.21544e-10
1.34531e-10
1.48869e-10
1.64697e-10
1.82164e-10
2.01437e-10
2.22696e-10
2.46141e-10
2.7199e-10
3.00483e-10
3.31881e-10
3.66474e-10
4.04578e-10
4.46537e-10
4.92732e-10
5.43577e-10
5.99527e-10
6.6108e-10
7.2878e-10
8.03224e-10
8.85062e-10
9.75008e-10
1.07384e-09
1.18241e-09
1.30165e-09
1.43258e-09
1.5763e-09
1.73403e-09
1.9071e-09
2.09694e-09
2.30513e-09
2.5334e-09
2.78361e-09
3.0578e-09
3.35822e-09
3.68727e-09
4.04761e-09
4.44211e-09
4.87391e-09
5.34641e-09
5.86334e-09
6.42872e-09
7.04695e-09
7.72281e-09
8.46149e-09
9.26863e-09
1.01504e-08
1.11133e-08
1.21648e-08
1.33126e-08
1.45652e-08
1.59319e-08
1.74228e-08
1.90486e-08
2.08213e-08
2.27535e-08
2.48591e-08
2.71532e-08
2.96519e-08
3.2373e-08
3.53353e-08
3.85596e-08
4.20682e-08
4.58851e-08
5.00366e-08
5.45507e-08
5.9458e-08
6.47913e-08
7.05864e-08
7.68816e-08
8.37185e-08
9.11417e-08
9.91996e-08
1.07944e-07
1.17432e-07
1.27724e-07
1.38885e-07
1.50985e-07
1.641e-07
1.78313e-07
1.93711e-07
2.10388e-07
2.28448e-07
2.47999e-07
2.69159e-07
2.92056e-07
3.16826e-07
3.43615e-07
3.72581e-07
4.03893e-07
4.37733e-07
4.74296e-07
5.13792e-07
5.56445e-07
6.02496e-07
6.52205e-07
7.05847e-07
7.63721e-07
8.26145e-07
8.9346e-07
9.66031e-07
1.04425e-06
1.12853e-06
1.21933e-06
1.31713e-06
1.42243e-06
1.53579e-06
1.65778e-06
1.78905e-06
1.93026e-06
2.08211e-06
2.24539e-06
2.42089e-06
2.6095e-06
2.81213e-06
3.02979e-06
3.26352e-06
3.51445e-06
3.78379e-06
4.0728e-06
4.38285e-06
4.71539e-06
5.07197e-06
5.45422e-06
5.8639e-06
6.30286e-06
6.77309e-06
7.27667e-06
7.81586e-06
8.39302e-06
9.01068e-06
9.6715e-06
1.03783e-05
1.11342e-05
1.19423e-05
1.28061e-05
1.37291e-05
1.47151e-05
1.57683e-05
1.68928e-05
1.80933e-05
1.93745e-05
2.07416e-05
2.21999e-05
2.37551e-05
2.54133e-05
2.71809e-05
2.90646e-05
3.10715e-05
3.32091e-05
3.54855e-05
3.7909e-05
4.04885e-05
4.32334e-05
4.61535e-05
4.92592e-05
5.25616e-05
5.60723e-05
5.98033e-05
6.37677e-05
6.79788e-05
7.24511e-05
7.71995e-05
8.22398e-05
8.75886e-05
9.32635e-05
9.92827e-05
0.000105666
0.000112433
0.000119605
0.000127205
0.000135256
0.000143783
0.000152812
0.00016237
0.000172486
0.000183188
0.00019451
0.000206483
0.000219141
0.000232521
0.000246661
0.000261599
0.000277377
0.000294038
0.000311627
0.000330191
0.00034978
0.000370444
0.000392237
0.000415216
0.000439438
0.000464965
0.000491861
0.000520191
0.000550025
0.000581435
0.000614495
0.000649284
0.000685883
0.000724377
0.000764853
0.000807404
0.000852124
0.000899112
0.000948471
0.00100031
0.00105473
0.00111186
0.00117181
0.00123471
0.00130068
0.00136986
0.00144239
0.0015184
0.00159806
0.0016815
0.00176888
0.00186038
0.00195617
0.0020564
0.00216128
0.00227098
0.0023857
0.00250564
0.002631
0.00276199
0.00289884
0.00304177
0.00319102
0.00334682
0.00350941
0.00367907
0.00385604
0.00404059
0.004233
0.00443356
0.00464256
0.0048603
0.00508709
0.00532324
0.00556907
0.00582493
0.00609115
0.00636808
0.00665609
0.00695553
0.00726678
0.00759023
0.00792627
0.0082753
0.00863774
0.009014
0.00940451
0.0098097
0.01023
0.010666
0.0111179
0.0115864
0.0120719
0.0125749
0.0130959
0.0136354
0.0141939
0.0147719
0.01537
0.0159887
0.0166285
0.0172901
0.0179739
0.0186805
0.0194106
0.0201646
0.0209433
0.0217471
0.0225767
0.0234327
0.0243156
0.0252262
0.026165
0.0271327
0.0281299
0.0291572
0.0302152
0.0313047
0.0324262
0.0335803
0.0347678
0.0359893
0.0372454
0.0385368
0.039864
0.0412278
0.0426288
0.0440677
0.0455449
0.0470613
0.0486174
0.0502138
0.0518512
0.0535301
0.0552512
0.057015
0.0588222
0.0606733
0.0625688
0.0645093
0.0664955
0.0685276
0.0706064
0.0727323
0.0749058
0.0771272
0.0793972
0.0817161
0.0840844
0.0865024
0.0889705
0.091489
0.0940583
0.0966787
0.0993505
0.102074
0.104849
0.107676
0.110556
0.113488
0.116472
0.119509
0.122599
0.125742
0.128937
0.132184
0.135485
0.138838
0.142243
0.1457
0.149209
0.15277
0.156382
0.160046
0.16376
0.167524
0.171338
0.175202
0.179114
0.183075
0.187083
0.191139
0.19524
0.199387
0.203579
0.207815
0.212094
0.216416
0.220778
0.225181
0.229623
0.234102
0.238619
0.243172
0.247759
0.25238
0.257032
0.261715
0.266427
0.271168
0.275934
0.280725
0.28554
0.290376
0.295233
0.300108
0.304999
0.309905
0.314825
0.319756
0.324696
0.329644
0.334598
0.339555
0.344515
0.349474
0.35443
0.359383
0.364329
0.369266
0.374193
0.379108
0.384007
0.388889
0.393752
0.398593
0.403411
0.408203
0.412966
0.417699
0.4224
0.427065
0.431693
0.436282
0.440828
0.445331
0.449787
0.454195
0.458553
0.462857
0.467105
0.471297
0.475429
0.479499
0.483505
0.487445
0.491316
0.495118
0.498847
0.502502
0.50608
0.50958
0.513
0.516337
0.519591
0.522759
0.525839
0.52883
0.53173
0.534537
0.53725
0.539867
0.542386
0.544807
0.547128
0.549347
0.551464
0.553476
0.555383
0.557184
0.558878
0.560463
0.561939
0.563305
0.56456
0.565703
0.566734
0.567651
0.568456
0.569146
0.569722
0.570183
0.570529
0.57076
0.570875
0.570875
0.57076
0.570529
0.570183
0.569722
0.569146
0.568456
0.567651
0.566734
0.565703
0.56456
0.563305
0.561939
0.560463
0.558878
0.557184
0.555383
0.553476
0.551464
0.549347
0.547128
0.544807
0.542386
0.539867
0.53725
0.534537
0.53173
0.52883
0.525839
0.522759
0.519591
0.516337
0.513
0.50958
0.50608
0.502502
0.498847
0.495118
0.491316
0.487445
0.483505
0.479499
0.475429
0.471297
0.467105
0.462857
0.458553
0.454195
0.449787
0.445331
0.440828
0.436282
0.431693
0.427065
0.4224
0.417699
0.412966
0.408203
0.403411
0.398593
0.393752
0.388889
0.384007
0.379108
0.374193
0.369266
0.364329
0.359383
0.35443
0.349474
0.344515
0.339555
0.334598
0.329644
0.324696
0.319756
0.314825
0.309905
0.304999
0.300108
0.295233
0.290376
0.28554
0.280725
0.275934
0.271168
0.266427
0.261715
0.257032
0.25238
0.247759
0.243172
0.238619
0.234102
0.229623
0.225181
0.220778
0.216416
0.212094
0.207815
0.203579
0.199387
0.19524
0.191139
0.187083
0.183075
0.179114
0.175202
0.171338
0.167524
0.16376
0.160046
0.156382
0.15277
0.149209
0.1457
0.142243
0.138838
0.135485
0.132184
0.128937
0.125742
0.122599
0.119509
0.116472
0.113488
0.110556
0.107676
0.104849
0.102074
0.0993505
0.0966787
0.0940583
0.091489
0.0889705
0.0865024
0.0840844
0.0817161
0.0793972
0.0771272
0.0749058
0.0727323
0.0706064
0.0685276
0.0664955
0.0645093
0.0625688
0.0606733
0.0588222
0.057015
0.0552512
0.0535301
0.0518512
0.0502138
0.0486174
0.0470613
0.0455449
0.0440677
0.0426288
0.0412278
0.039864
0.0385368
0.0372454
0.0359893
0.0347678
0.0335803
0.0324262
0.0313047
0.0302152
0.0291572
0.0281299
0.0271327
0.026165
0.0252262
0.0243156
0.0234327
0.0225767
0.0217471
0.0209433
0.0201646
0.0194106
0.0186805
0.0179739
0.0172901
0.0166285
0.0159887
0.01537
0.0147719
0.0141939
0.0136354
0.0130959
0.0125749
0.0120719
0.0115864
0.0111179
0.010666
0.01023
0.0098097
0.00940451
0.009014
0.00863774
0.0082753
0.00792627
0.00759023
0.00726678
0.00695553
0.00665609
0.00636808
0.00609115
0.00582493
0.00556907
0.00532324
0.00508709
0.0048603
0.00464256
0.00443356
0.004233
0.00404059
0.00385604
0.00367907
0.00350941
0.00334682
0.00319102
0.00304177
0.00289884
0.00276199
0.002631
0.00250564
0.0023857
0.00227098
0.00216128
0.0020564
0.00195617
0.00186038
0.00176888
0.0016815
0.00159806
0.0015184
0.00144239
0.00136986
0.00130068
0.00123471
0.00117181
0.00111186
0.00105473
0.00100031
0.000948471
0.000899112
0.000852124
0.000807404
0.000764853
0.000724377
0.000685883
0.000649284
0.000614495
0.000581435
0.000550025
0.000520191
0.000491861
0.000464965
0.000439438
0.000415216
0.000392237
0.000370444
0.00034978
0.000330191
0.000311627
0.000294038
0.000277377
0.000261599
0.000246661
0.000232521
0.000219141
0.000206483
0.00019451
0.000183188
0.000172486
0.00016237
0.000152812
0.000143783
0.000135256
0.000127205
0.000119605
0.000112433
0.000105666
9.92827e-05
9.32635e-05
8.75886e-05
8.22398e-05
7.71995e-05
7.24511e-05
6.79788e-05
6.37677e-05
5.98033e-05
5.60723e-05
5.25616e-05
4.92592e-05
4.61535e-05
4.32334e-05
4.04885e-05
3.7909e-05
3.54855e-05
3.32091e-05
3.10715e-05
2.90646e-05
2.71809e-05
2.54133e-05
2.37551e-05
2.21999e-05
2.07416e-05
1.93745e-05
1.80933e-05
1.68928e-05
1.57683e-05
1.47151e-05
1.37291e-05
1.28061e-05
1.19423e-05
1.11342e-05
1.03783e-05
9.6715e-06
9.01068e-06
8.39302e-06
7.81586e-06
7.27667e-06
6.77309e-06
6.30286e-06
5.8639e-06
5.45422e-06
5.07197e-06
4.71539e-06
4.38285e-06
4.0728e-06
3.78379e-06
3.51445e-06
3.26352e-06
3.02979e-06
2.81213e-06
2.6095e-06
2.42089e-06
2.24539e-06
2.08211e-06
1.93026e-06
1.78905e-06
1.65778e-06
1.53579e-06
1.42243e-06
1.31713e-06
1.21933e-06
1.12853e-06
1.04425e-06
9.66031e-07
8.9346e-07
8.26145e-07
7.63721e-07
7.05847e-07
6.52205e-07
6.02496e-07
5.56445e-07
5.13792e-07
4.74296e-07
4.37733e-07
4.03893e-07
3.72581e-07
3.43615e-07
3.16826e-07
2.92056e-07
2.69159e-07
2.47999e-07
2.28448e-07
2.10388e-07
1.93711e-07
1.78313e-07
1.641e-07
1.50985e-07
1.38885e-07
1.27724e-07
1.17432e-07
1.07944e-07
9.91996e-08
9.11417e-08
8.37185e-08
7.68816e-08
7.05864e-08
6.47913e-08
5.9458e-08
5.45507e-08
5.00366e-08
4.58851e-08
4.20682e-08
3.85596e-08
3.53353e-08
3.2373e-08
2.96519e-08
2.71532e-08
2.48591e-08
2.27535e-08
2.08213e-08
1.90486e-08
1.74228e-08
1.59319e-08
1.45652e-08
1.33126e-08
1.21648e-08
1.11133e-08
1.01504e-08
9.26863e-09
8.46149e-09
7.72281e-09
7.04695e-09
6.42872e-09
5.86334e-09
5.34641e-09
4.87391e-09
4.44211e-09
4.04761e-09
3.68727e-09
3.35822e-09
3.0578e-09
2.78361e-09
2.5334e-09
2.30513e-09
2.09694e-09
1.9071e-09
1.73403e-09
1.5763e-09
1.43258e-09
1.30165e-09
1.18241e-09
1.07384e-09
9.75008e-10
8.85062e-10
8.03224e-10
7.2878e-10
6.6108e-10
5.99527e-10
5.43577e-10
4.92732e-10
4.46537e-10
4.04578e-10
3.66474e-10
3.31881e-10
3.00483e-10
2.7199e-10
2.46141e-10
2.22696e-10
2.01437e-10
1.82164e-10
1.64697e-10
1.48869e-10
1.34531e-10
1.21544e-10
1.09786e-10
9.91421e-11
8.9509e-11
8.07929e-11
7.29086e-11
6.57783e-11
5.93316e-11
5.35043e-11
4.82383e-11
4.34806e-11
3.91833e-11
3.53028e-11
3.17995e-11
2.86377e-11
2.57848e-11
2.32113e-11
2.08904e-11
1.87981e-11
1.69123e-11
1.52132e-11
1.36828e-11
1.23048e-11
1.10646e-11
9.94874e-12
8.94531e-12
8.04341e-12
7.23324e-12
6.50595e-12
5.85356e-12
5.26888e-12
4.74544e-12
4.27744e-12
3.85966e-12
3.48741e-12
3.15652e-12
2.86325e-12
2.60428e-12
2.37668e-12
2.17786e-12
2.00553e-12
1.85774e-12
1.73277e-12
1.62921e-12
1.54584e-12
1.4817e-12
1.43607e-12
1.4084e-12
1.39839e-12
)
;

boundaryField
{
    sides
    {
        type            zeroGradient;
    }
    empty
    {
        type            empty;
    }
}


// ************************************************************************* //
