/*--------------------------------*- C++ -*----------------------------------*\
| =========                 |                                                 |
| \\      /  F ield         | OpenFOAM: The Open Source CFD Toolbox           |
|  \\    /   O peration     | Version:  2312                                  |
|   \\  /    A nd           | Website:  www.openfoam.com                      |
|    \\/     M anipulation  |                                                 |
\*---------------------------------------------------------------------------*/
FoamFile
{
    version     2.0;
    format      ascii;
    arch        "LSB;label=32;scalar=64";
    class       volScalarField;
    location    "3.4";
    object      T;
}
// * * * * * * * * * * * * * * * * * * * * * * * * * * * * * * * * * * * * * //

dimensions      [0 0 0 1 0 0 0];

internalField   nonuniform List<scalar> 
1000
(
1.65098e-91
2.87536e-91
6.28606e-91
1.44572e-90
3.35359e-90
7.78262e-90
1.80416e-89
4.17676e-89
9.65593e-89
2.22913e-88
5.13877e-88
1.18295e-87
2.71931e-87
6.24211e-87
1.43082e-86
3.27505e-86
7.48566e-86
1.70852e-85
3.89393e-85
8.862e-85
2.01396e-84
4.5703e-84
1.03565e-83
2.34343e-83
5.29499e-83
1.19467e-82
2.69154e-82
6.05514e-82
1.36024e-81
3.05122e-81
6.83436e-81
1.52858e-80
3.41384e-80
7.61311e-80
1.69529e-79
3.76953e-79
8.36937e-79
1.85549e-78
4.10754e-78
9.07956e-78
2.00403e-77
4.41674e-77
9.71973e-77
2.1358e-76
4.68622e-76
1.02668e-75
2.24596e-75
4.9059e-75
1.07e-74
2.33025e-74
5.06718e-74
1.10022e-73
2.38526e-73
5.16345e-73
1.11606e-72
2.40869e-72
5.19058e-72
1.11684e-71
2.39944e-71
5.14715e-71
1.10246e-70
2.35775e-70
5.03465e-70
1.07344e-69
2.28518e-69
4.85733e-69
1.03088e-68
2.1845e-68
4.62196e-68
9.76407e-68
2.05952e-67
4.3374e-67
9.12054e-67
1.91487e-66
4.01404e-66
8.40138e-66
1.75567e-65
3.66318e-65
7.63126e-65
1.58729e-64
3.29635e-64
6.83489e-64
1.41497e-63
2.9247e-63
6.03574e-63
1.24364e-62
2.55844e-62
5.25494e-62
1.07764e-61
2.20643e-61
4.51042e-61
9.20563e-61
1.87585e-60
3.81638e-60
7.75196e-60
1.57209e-59
3.18308e-59
6.43459e-59
1.29867e-58
2.61683e-58
5.26448e-58
1.05739e-57
2.12037e-57
4.24511e-57
8.48519e-57
1.69329e-56
3.37361e-56
6.71047e-56
1.33261e-55
2.64209e-55
5.22975e-55
1.03349e-54
2.03901e-54
4.01625e-54
7.89787e-54
1.55055e-53
3.0391e-53
5.94689e-53
1.16176e-52
2.26583e-52
4.41184e-52
8.57613e-52
1.66434e-51
3.22457e-51
6.23704e-51
1.20437e-50
2.32178e-50
4.46841e-50
8.58538e-50
1.64679e-49
3.15347e-49
6.0285e-49
1.15053e-48
2.19209e-48
4.1695e-48
7.91728e-48
1.50084e-47
2.84025e-47
5.3659e-47
1.01202e-46
1.90547e-46
3.58156e-46
6.72051e-46
1.2589e-45
2.35417e-45
4.39481e-45
8.19027e-45
1.52374e-44
2.82994e-44
5.24683e-44
9.71109e-44
1.79428e-43
3.30949e-43
6.09369e-43
1.12008e-42
2.05524e-42
3.76462e-42
6.88376e-42
1.25653e-41
2.28962e-41
4.16482e-41
7.56257e-41
1.37083e-40
2.48047e-40
4.48046e-40
8.07884e-40
1.45415e-39
2.6128e-39
4.68638e-39
8.39074e-39
1.49967e-38
2.67559e-38
4.76514e-38
8.47148e-38
1.50339e-37
2.66324e-37
4.7095e-37
8.31312e-37
1.4648e-36
2.5764e-36
4.52347e-36
7.92777e-36
1.38691e-35
2.42196e-35
4.22186e-35
7.34609e-35
1.27593e-34
2.21212e-34
3.82831e-34
6.6133e-34
1.14036e-33
1.9628e-33
3.37225e-33
5.78326e-33
9.89999e-33
1.69162e-32
2.88522e-32
4.91201e-32
8.34726e-32
1.4159e-31
2.3973e-31
4.05148e-31
6.83449e-31
1.1508e-30
1.93414e-30
3.24471e-30
5.43326e-30
9.08114e-30
1.51501e-29
2.5228e-29
4.19319e-29
6.9566e-29
1.15197e-28
1.90403e-28
3.14121e-28
5.17258e-28
8.50168e-28
1.39473e-27
2.2838e-27
3.73259e-27
6.08901e-27
9.91439e-27
1.61126e-26
2.61365e-26
4.23162e-26
6.83826e-26
1.10297e-25
1.77564e-25
2.85315e-25
4.57582e-25
7.32465e-25
1.17025e-24
1.86613e-24
2.97013e-24
4.71825e-24
7.48093e-24
1.18386e-23
1.86986e-23
2.94772e-23
4.63799e-23
7.28347e-23
1.14159e-22
1.78585e-22
2.78833e-22
4.34513e-22
6.75807e-22
1.04906e-21
1.62532e-21
2.51325e-21
3.87873e-21
5.97446e-21
9.18465e-21
1.40923e-20
2.15801e-20
3.29822e-20
5.03103e-20
7.65923e-20
1.16376e-19
1.76478e-19
2.67096e-19
4.03452e-19
6.08223e-19
9.15124e-19
1.37418e-18
2.05944e-18
3.08034e-18
4.59824e-18
6.85058e-18
1.0186e-17
1.51154e-17
2.2386e-17
3.3088e-17
4.88095e-17
7.18579e-17
1.0558e-16
1.54819e-16
2.26569e-16
3.30912e-16
4.82345e-16
7.01675e-16
1.0187e-15
1.476e-15
2.13431e-15
3.08006e-15
4.43598e-15
6.376e-15
9.14606e-15
1.30932e-14
1.87062e-14
2.66717e-14
3.79525e-14
5.38957e-14
7.6382e-14
1.08032e-13
1.52487e-13
2.14801e-13
3.01968e-13
4.23648e-13
5.93156e-13
8.28803e-13
1.15572e-12
1.60831e-12
2.23361e-12
3.0957e-12
4.2818e-12
5.9103e-12
8.14155e-12
1.11923e-11
1.53548e-11
2.10224e-11
2.87232e-11
3.91648e-11
5.3293e-11
7.23694e-11
9.80731e-11
1.32634e-10
1.79006e-10
2.41097e-10
3.24058e-10
4.34672e-10
5.81847e-10
7.77252e-10
1.03615e-09
1.37844e-09
1.83004e-09
2.42458e-09
3.20567e-09
4.22965e-09
5.56923e-09
7.31794e-09
9.59591e-09
1.2557e-08
1.6398e-08
2.13695e-08
2.77909e-08
3.60672e-08
4.67114e-08
6.03719e-08
7.7866e-08
1.00222e-07
1.28729e-07
1.65003e-07
2.1106e-07
2.69414e-07
3.4319e-07
4.36263e-07
5.5343e-07
7.00608e-07
8.8509e-07
1.11583e-06
1.40381e-06
1.76246e-06
2.20814e-06
2.7608e-06
3.44462e-06
4.28892e-06
5.32908e-06
6.6078e-06
8.17636e-06
1.00963e-05
1.24413e-05
1.52991e-05
1.87745e-05
2.29917e-05
2.80978e-05
3.42669e-05
4.17041e-05
5.06504e-05
6.13888e-05
7.42501e-05
8.96204e-05
0.000107949
0.000129758
0.000155652
0.000186328
0.000222589
0.000265361
0.000315701
0.000374818
0.000444092
0.000525088
0.000619584
0.000729588
0.000857364
0.00100546
0.00117672
0.00137435
0.0016019
0.00186332
0.002163
0.00250577
0.00289698
0.00334248
0.00384869
0.00442262
0.0050719
0.00580479
0.00663024
0.00755788
0.00859807
0.00976189
0.0110612
0.0125084
0.014117
0.0159009
0.0178748
0.0200542
0.0224552
0.0250944
0.0279889
0.0311566
0.0346154
0.0383839
0.0424805
0.046924
0.051733
0.0569262
0.0625217
0.0685374
0.0749903
0.081897
0.089273
0.0971325
0.105489
0.114353
0.123736
0.133646
0.144088
0.155068
0.166586
0.178644
0.191237
0.20436
0.218005
0.232162
0.246816
0.261952
0.277551
0.293591
0.310047
0.326893
0.3441
0.361636
0.379468
0.39756
0.415875
0.434375
0.453021
0.47177
0.490582
0.509415
0.528227
0.546976
0.565621
0.584121
0.602436
0.620527
0.638357
0.655892
0.673097
0.689941
0.706394
0.72243
0.738025
0.753156
0.767804
0.781953
0.79559
0.808702
0.821282
0.833324
0.844824
0.855782
0.866198
0.876077
0.885424
0.894246
0.902552
0.910352
0.917659
0.924485
0.930843
0.936749
0.942216
0.947261
0.951899
0.956145
0.960014
0.963521
0.96668
0.969505
0.972009
0.974202
0.976097
0.977703
0.979027
0.980078
0.980861
0.981381
0.98164
0.98164
0.981381
0.980861
0.980078
0.979027
0.977703
0.976097
0.974202
0.972009
0.969505
0.96668
0.963521
0.960014
0.956145
0.951899
0.947261
0.942216
0.936749
0.930843
0.924485
0.917659
0.910352
0.902552
0.894246
0.885424
0.876077
0.866198
0.855782
0.844824
0.833324
0.821282
0.808702
0.79559
0.781953
0.767804
0.753156
0.738025
0.72243
0.706394
0.689941
0.673097
0.655892
0.638357
0.620527
0.602436
0.584121
0.565621
0.546976
0.528227
0.509415
0.490582
0.47177
0.453021
0.434375
0.415875
0.39756
0.379468
0.361636
0.3441
0.326893
0.310047
0.293591
0.277551
0.261952
0.246816
0.232162
0.218005
0.20436
0.191237
0.178644
0.166586
0.155068
0.144088
0.133646
0.123736
0.114353
0.105489
0.0971325
0.089273
0.081897
0.0749903
0.0685374
0.0625217
0.0569262
0.051733
0.046924
0.0424805
0.0383839
0.0346154
0.0311566
0.0279889
0.0250944
0.0224552
0.0200542
0.0178748
0.0159009
0.014117
0.0125084
0.0110612
0.00976189
0.00859807
0.00755788
0.00663024
0.00580479
0.0050719
0.00442262
0.00384869
0.00334248
0.00289698
0.00250577
0.002163
0.00186332
0.0016019
0.00137435
0.00117672
0.00100546
0.000857364
0.000729588
0.000619584
0.000525088
0.000444092
0.000374818
0.000315701
0.000265361
0.000222589
0.000186328
0.000155652
0.000129758
0.000107949
8.96204e-05
7.42501e-05
6.13888e-05
5.06504e-05
4.17041e-05
3.42669e-05
2.80978e-05
2.29917e-05
1.87745e-05
1.52991e-05
1.24413e-05
1.00963e-05
8.17636e-06
6.6078e-06
5.32908e-06
4.28892e-06
3.44462e-06
2.7608e-06
2.20814e-06
1.76246e-06
1.40381e-06
1.11583e-06
8.8509e-07
7.00608e-07
5.5343e-07
4.36263e-07
3.4319e-07
2.69414e-07
2.1106e-07
1.65003e-07
1.28729e-07
1.00222e-07
7.7866e-08
6.03719e-08
4.67114e-08
3.60672e-08
2.77909e-08
2.13695e-08
1.6398e-08
1.2557e-08
9.59591e-09
7.31794e-09
5.56923e-09
4.22965e-09
3.20567e-09
2.42458e-09
1.83004e-09
1.37844e-09
1.03615e-09
7.77252e-10
5.81847e-10
4.34672e-10
3.24058e-10
2.41097e-10
1.79006e-10
1.32634e-10
9.80731e-11
7.23694e-11
5.3293e-11
3.91648e-11
2.87232e-11
2.10224e-11
1.53548e-11
1.11923e-11
8.14155e-12
5.9103e-12
4.2818e-12
3.0957e-12
2.23361e-12
1.60831e-12
1.15572e-12
8.28803e-13
5.93156e-13
4.23648e-13
3.01968e-13
2.14801e-13
1.52487e-13
1.08032e-13
7.6382e-14
5.38957e-14
3.79525e-14
2.66717e-14
1.87062e-14
1.30932e-14
9.14606e-15
6.376e-15
4.43598e-15
3.08006e-15
2.13431e-15
1.476e-15
1.0187e-15
7.01675e-16
4.82345e-16
3.30912e-16
2.26569e-16
1.54819e-16
1.0558e-16
7.18579e-17
4.88095e-17
3.3088e-17
2.2386e-17
1.51154e-17
1.0186e-17
6.85058e-18
4.59824e-18
3.08034e-18
2.05944e-18
1.37418e-18
9.15124e-19
6.08223e-19
4.03452e-19
2.67096e-19
1.76478e-19
1.16376e-19
7.65923e-20
5.03103e-20
3.29822e-20
2.15801e-20
1.40923e-20
9.18465e-21
5.97446e-21
3.87873e-21
2.51325e-21
1.62532e-21
1.04906e-21
6.75807e-22
4.34513e-22
2.78833e-22
1.78585e-22
1.14159e-22
7.28347e-23
4.63799e-23
2.94772e-23
1.86986e-23
1.18386e-23
7.48093e-24
4.71825e-24
2.97013e-24
1.86613e-24
1.17025e-24
7.32465e-25
4.57582e-25
2.85315e-25
1.77564e-25
1.10297e-25
6.83826e-26
4.23162e-26
2.61365e-26
1.61126e-26
9.91439e-27
6.08901e-27
3.73259e-27
2.2838e-27
1.39473e-27
8.50168e-28
5.17258e-28
3.14121e-28
1.90403e-28
1.15197e-28
6.9566e-29
4.19319e-29
2.5228e-29
1.51501e-29
9.08114e-30
5.43326e-30
3.24471e-30
1.93414e-30
1.1508e-30
6.83449e-31
4.05148e-31
2.3973e-31
1.4159e-31
8.34726e-32
4.91201e-32
2.88522e-32
1.69162e-32
9.89999e-33
5.78326e-33
3.37225e-33
1.9628e-33
1.14036e-33
6.6133e-34
3.82831e-34
2.21212e-34
1.27593e-34
7.34609e-35
4.22186e-35
2.42196e-35
1.38691e-35
7.92777e-36
4.52347e-36
2.5764e-36
1.4648e-36
8.31312e-37
4.7095e-37
2.66324e-37
1.50339e-37
8.47148e-38
4.76514e-38
2.67559e-38
1.49967e-38
8.39074e-39
4.68638e-39
2.6128e-39
1.45415e-39
8.07884e-40
4.48046e-40
2.48047e-40
1.37083e-40
7.56257e-41
4.16482e-41
2.28962e-41
1.25653e-41
6.88376e-42
3.76462e-42
2.05524e-42
1.12008e-42
6.09369e-43
3.30949e-43
1.79428e-43
9.71109e-44
5.24683e-44
2.82994e-44
1.52374e-44
8.19027e-45
4.39481e-45
2.35417e-45
1.2589e-45
6.72051e-46
3.58156e-46
1.90547e-46
1.01202e-46
5.3659e-47
2.84025e-47
1.50084e-47
7.91728e-48
4.1695e-48
2.19209e-48
1.15053e-48
6.0285e-49
3.15347e-49
1.64679e-49
8.58538e-50
4.46841e-50
2.32178e-50
1.20437e-50
6.23704e-51
3.22457e-51
1.66434e-51
8.57613e-52
4.41184e-52
2.26583e-52
1.16176e-52
5.94689e-53
3.0391e-53
1.55055e-53
7.89787e-54
4.01625e-54
2.03901e-54
1.03349e-54
5.22975e-55
2.64209e-55
1.33261e-55
6.71047e-56
3.37361e-56
1.69329e-56
8.48519e-57
4.24511e-57
2.12037e-57
1.05739e-57
5.26448e-58
2.61683e-58
1.29867e-58
6.43459e-59
3.18308e-59
1.57209e-59
7.75196e-60
3.81638e-60
1.87585e-60
9.20563e-61
4.51042e-61
2.20643e-61
1.07764e-61
5.25494e-62
2.55844e-62
1.24364e-62
6.03574e-63
2.9247e-63
1.41497e-63
6.83489e-64
3.29635e-64
1.58729e-64
7.63126e-65
3.66318e-65
1.75567e-65
8.40138e-66
4.01404e-66
1.91487e-66
9.12054e-67
4.3374e-67
2.05952e-67
9.76407e-68
4.62196e-68
2.1845e-68
1.03088e-68
4.85733e-69
2.28518e-69
1.07344e-69
5.03465e-70
2.35775e-70
1.10246e-70
5.14715e-71
2.39944e-71
1.11684e-71
5.19058e-72
2.40869e-72
1.11606e-72
5.16345e-73
2.38526e-73
1.10022e-73
5.06718e-74
2.33025e-74
1.07e-74
4.9059e-75
2.24596e-75
1.02668e-75
4.68622e-76
2.1358e-76
9.71973e-77
4.41674e-77
2.00403e-77
9.07956e-78
4.10754e-78
1.85549e-78
8.36937e-79
3.76953e-79
1.69529e-79
7.61311e-80
3.41384e-80
1.52858e-80
6.83436e-81
3.05122e-81
1.36024e-81
6.05514e-82
2.69154e-82
1.19467e-82
5.29499e-83
2.34343e-83
1.03565e-83
4.5703e-84
2.01396e-84
8.862e-85
3.89393e-85
1.70852e-85
7.48566e-86
3.27505e-86
1.43082e-86
6.24211e-87
2.71931e-87
1.18295e-87
5.13877e-88
2.22913e-88
9.65593e-89
4.17676e-89
1.80416e-89
7.78262e-90
3.35359e-90
1.44572e-90
6.28606e-91
2.87536e-91
1.65098e-91
)
;

boundaryField
{
    sides
    {
        type            zeroGradient;
    }
    empty
    {
        type            empty;
    }
}


// ************************************************************************* //
