/*--------------------------------*- C++ -*----------------------------------*\
| =========                 |                                                 |
| \\      /  F ield         | OpenFOAM: The Open Source CFD Toolbox           |
|  \\    /   O peration     | Version:  2312                                  |
|   \\  /    A nd           | Website:  www.openfoam.com                      |
|    \\/     M anipulation  |                                                 |
\*---------------------------------------------------------------------------*/
FoamFile
{
    version     2.0;
    format      ascii;
    arch        "LSB;label=32;scalar=64";
    class       volScalarField;
    location    "0.1";
    object      T;
}
// * * * * * * * * * * * * * * * * * * * * * * * * * * * * * * * * * * * * * //

dimensions      [0 0 0 1 0 0 0];

internalField   nonuniform List<scalar> 
1000
(
0
0
0
0
0
0
0
0
0
0
0
0
0
0
0
0
0
0
0
0
0
0
0
0
0
0
0
0
0
0
0
0
0
0
0
0
0
0
0
0
0
0
0
0
0
0
0
0
0
0
0
0
0
0
0
0
0
0
0
0
0
0
0
0
0
0
0
0
0
0
0
0
0
0
0
0
0
0
0
0
0
0
0
0
0
0
0
0
0
0
0
0
0
0
0
0
0
0
0
0
0
0
0
0
0
0
0
0
0
0
0
0
0
0
0
0
0
0
0
0
0
0
0
0
0
0
0
0
0
0
0
0
0
0
0
0
0
0
0
0
0
0
0
0
0
0
0
0
0
0
0
0
0
0
0
0
0
0
0
0
0
0
0
0
0
0
0
0
0
0
0
0
0
0
0
0
0
0
0
0
0
0
0
0
0
0
0
0
0
0
0
0
0
0
0
0
0
0
0
0
0
0
0
0
0
0
0
0
0
0
0
0
0
0
0
0
0
0
0
0
0
0
0
0
0
0
0
0
0
0
0
0
0
0
0
0
0
0
0
0
0
0
0
0
0
0
0
0
0
0
0
0
0
0
0
0
0
0
0
0
0
0
0
0
0
0
0
0
0
0
0
0
0
0
0
0
0
0
0
0
0
0
0
0
0
0
0
0
0
0
0
0
0
0
0
0
0
0
0
0
0
0
0
0
0
0
0
0
0
0
0
0
0
0
0
0
0
0
0
0
0
0
0
0
0
0
0
0
0
0
0
0
0
0
0
0
0
0
0
0
0
0
0
0
0
0
0
0
0
0
1.46062e-180
-8.73208e-177
2.58399e-173
-5.04604e-170
7.3148e-167
-8.39517e-164
7.94535e-161
-6.37732e-158
4.43109e-155
-2.70719e-152
1.47233e-149
-7.1992e-147
3.19083e-144
-1.29072e-141
4.79288e-139
-1.64193e-136
5.21177e-134
-1.5386e-131
4.23855e-129
-1.0928e-126
2.64384e-124
-6.01617e-122
1.29037e-119
-2.61361e-117
5.00788e-115
-9.09143e-113
1.56601e-110
-2.56274e-108
3.98913e-106
-5.91273e-104
8.35343e-102
-1.12591e-99
1.44899e-97
-1.7819e-95
2.09537e-93
-2.35761e-91
2.53965e-89
-2.62055e-87
2.59143e-85
-2.45699e-83
2.23436e-81
-1.94958e-79
1.63269e-77
-1.31268e-75
1.01346e-73
-7.5151e-72
5.35323e-70
-3.6636e-68
2.40909e-66
-1.52223e-64
9.24286e-63
-5.39299e-61
3.02369e-59
-1.62894e-57
8.43115e-56
-4.19209e-54
2.002e-52
-9.18128e-51
4.04246e-49
-1.70834e-47
6.92714e-46
-2.69423e-44
1.00472e-42
-3.59082e-41
1.22934e-39
-4.02947e-38
1.26376e-36
-3.79e-35
1.08608e-33
-2.97166e-32
7.75663e-31
-1.92965e-29
4.57056e-28
-1.02957e-26
2.20289e-25
-4.47088e-24
8.59402e-23
-1.56199e-21
2.67933e-20
-4.32855e-19
6.57074e-18
-9.34761e-17
1.24253e-15
-1.53798e-14
1.7657e-13
-1.87157e-12
1.82157e-11
-1.61726e-10
1.29924e-09
-9.34815e-09
5.94354e-08
-3.27781e-07
1.52528e-06
-5.71902e-06
1.57198e-05
-2.32745e-05
-2.61679e-05
0.000214405
-0.000264942
-0.000897789
0.00216818
0.00457531
-0.00938265
-0.0326593
-0.00602702
0.140024
0.404318
0.698267
0.918185
1.02247
1.03958
1.02209
1.00522
0.998483
0.998142
0.999304
0.999971
1.0001
1.00005
1.00001
0.999996
0.999998
1
1
1
1
1
1
1
1
1
1
1
1
1
1
1
1
1
1
1
1
1
1
1
1
1
1
1
1
1
1
1
1
1
1
1
1
1
1
1
1
1
1
1
1
1
1
1
1
1
1
1
1
1
1
1
1
1
1
1
1
1
1
1
1
1
1
1
1
1
1
0.999998
1.00001
0.999984
1.00002
1.00003
0.999786
1.00026
1.0009
0.997832
0.995425
1.00938
1.03266
1.00603
0.859976
0.595682
0.301733
0.0818149
-0.0224667
-0.0395807
-0.0220925
-0.00521782
0.00151693
0.00185817
0.000696154
2.87687e-05
-9.6632e-05
-4.67938e-05
-6.04379e-06
3.78542e-06
2.20189e-06
3.53197e-07
-1.25855e-07
-8.06298e-08
-1.32073e-08
3.81831e-09
2.40558e-09
3.59312e-10
-1.07244e-10
-5.96185e-11
-7.33316e-12
2.7113e-12
1.23483e-12
1.09398e-13
-5.96015e-14
-2.13562e-14
-1.02385e-15
1.11413e-15
3.06745e-16
9.61421e-20
-1.75309e-17
-3.61863e-18
2.1269e-19
2.31405e-19
3.42647e-20
-4.86643e-21
-2.55953e-21
-2.46216e-22
7.14403e-23
2.36806e-23
1.10215e-24
-8.01322e-25
-1.82305e-25
1.11079e-27
7.26289e-27
1.15251e-27
-8.1129e-29
-5.45546e-29
-5.79066e-30
9.67022e-31
3.44014e-31
2.10071e-32
-7.83023e-33
-1.83186e-33
-3.25885e-35
4.99815e-35
8.23663e-36
-2.39931e-37
-2.64804e-37
-3.10253e-38
2.72593e-39
1.19458e-39
9.56641e-41
-1.68655e-41
-4.66157e-42
-2.26221e-43
7.96466e-44
1.59202e-44
3.14597e-46
-3.12524e-46
-4.8072e-47
3.7911e-49
1.05807e-48
1.29692e-49
-4.58509e-51
-3.16058e-51
-3.16493e-52
1.98629e-53
8.46363e-54
7.0964e-55
-6.31192e-56
-2.05764e-56
-1.49133e-57
1.65375e-58
4.58867e-59
3.0055e-60
-3.72055e-61
-9.46208e-62
-5.93081e-63
7.29433e-64
1.81341e-64
1.15863e-65
-1.24402e-66
-3.23486e-67
-2.23259e-68
1.8035e-69
5.35485e-70
4.17731e-71
-2.06401e-72
-8.15456e-73
-7.43418e-74
1.34753e-75
1.12348e-75
1.23284e-76
1.34703e-78
-1.35727e-78
-1.86788e-79
-7.06801e-81
1.34265e-81
2.52886e-82
1.62583e-83
-8.66893e-85
-2.96125e-85
-2.78237e-86
-2.21739e-88
2.80968e-88
3.84021e-89
1.86017e-90
-1.76198e-91
-4.26596e-92
-3.63806e-93
-2.12101e-95
3.53207e-95
4.81793e-96
2.64624e-97
-1.46867e-98
-4.61543e-99
-4.58661e-100
-1.41889e-101
2.69383e-102
4.97401e-103
3.95668e-104
4.03736e-106
-3.30935e-106
-4.82007e-107
-3.2841e-108
1.95192e-110
3.39037e-110
4.39849e-111
2.76372e-112
-3.74103e-114
-3.09202e-114
-3.8728e-115
-2.43469e-116
2.33881e-118
2.55893e-118
3.312e-119
2.24062e-120
9.21903e-123
-1.90079e-122
-2.72617e-123
-2.08967e-124
-4.74771e-126
1.20268e-126
2.10975e-127
1.89721e-128
8.03899e-130
-5.40701e-131
-1.4726e-131
-1.61195e-132
-9.98883e-134
-1.26754e-136
8.52564e-136
1.22868e-136
1.01857e-137
3.96797e-139
-3.0973e-140
-7.87615e-141
-8.69012e-142
-5.79019e-143
-9.33487e-145
3.59676e-145
6.01777e-146
5.68761e-147
3.16885e-148
-2.03153e-150
-2.98139e-150
-4.19228e-151
-3.62902e-152
-1.79481e-153
4.14918e-155
2.11963e-155
2.7788e-156
2.3294e-157
1.12144e-158
-2.84787e-160
-1.35852e-160
-1.78162e-161
-1.52071e-162
-7.85266e-164
9.07385e-166
7.86852e-166
1.10235e-166
1.00082e-167
5.90619e-169
6.11089e-171
-3.95153e-171
-6.45564e-172
-6.48432e-173
-4.48424e-174
-1.45395e-175
1.47868e-176
3.43307e-177
3.99831e-178
3.26497e-179
1.69699e-180
-8.3035e-183
-1.51166e-182
-2.23936e-183
-2.18972e-184
-1.52605e-185
-5.55268e-187
3.89434e-188
1.04866e-188
1.29478e-189
1.14043e-190
7.05978e-192
1.64078e-193
-3.18384e-194
-6.24316e-195
-7.07523e-196
-5.902e-197
-3.42718e-198
-5.50056e-200
1.91022e-200
3.4098e-201
3.76164e-202
3.10768e-203
1.81311e-204
3.27194e-206
-9.46656e-207
-1.74093e-207
-1.96073e-208
-1.66997e-209
-1.04183e-210
-2.9374e-212
3.74081e-213
8.22319e-214
9.92205e-215
9.01842e-216
6.25379e-217
2.63801e-218
-8.39764e-220
-3.43112e-220
-4.74472e-221
-4.75611e-222
-3.73317e-223
-2.11318e-224
-3.69889e-226
1.09756e-226
2.0346e-227
2.35417e-228
2.11852e-229
1.49316e-230
6.89339e-232
-9.01852e-234
-6.91365e-234
-1.02986e-234
-1.09291e-235
-9.26071e-237
-6.11129e-238
-2.41619e-239
9.84219e-241
3.48998e-241
4.80615e-242
4.93264e-243
4.09855e-244
2.66685e-245
1.03492e-246
-4.48799e-248
-1.53989e-248
-2.12063e-249
-2.19363e-250
-1.85439e-251
-1.25288e-252
-5.53808e-254
9.67037e-256
5.93371e-256
8.81521e-257
9.55471e-258
8.48511e-259
6.18242e-260
3.3099e-261
4.82777e-263
-1.82757e-263
-3.34223e-264
-3.97901e-265
-3.82191e-266
-3.06931e-267
-1.97472e-268
-7.9197e-270
2.66998e-271
1.05759e-271
1.51097e-272
1.62809e-273
1.46366e-274
1.10511e-275
6.51167e-277
1.93568e-278
-1.95856e-279
-4.71936e-280
-6.17144e-281
-6.38012e-282
-5.58631e-283
-4.12945e-284
-2.37319e-285
-6.44664e-287
8.06453e-288
1.8277e-288
2.3643e-289
2.4449e-290
2.15826e-291
1.62645e-292
9.79453e-294
3.34529e-295
-2.17752e-296
-6.20344e-297
-8.50141e-298
-9.13453e-299
-8.38352e-300
-6.65747e-301
-4.40739e-302
-2.05421e-303
6.21983e-306
1.71078e-305
2.77566e-306
3.24528e-307
3.18987e-308
2.73323e-309
2.02388e-310
1.20979e-311
4.18991e-313
-2.52497e-314
-7.45776e-315
-1.03809e-315
-1.1374e-316
-1.07427e-317
-8.92727e-319
-6.41643e-320
-3.68079e-321
-1.08694e-322
9.88131e-324
0
0
0
0
0
0
0
0
0
0
0
0
0
0
0
0
0
0
0
0
0
0
0
0
0
0
0
0
0
0
0
0
0
0
0
0
0
0
0
0
0
0
0
0
0
0
0
0
0
0
0
0
0
0
0
0
0
0
0
0
0
0
0
0
0
0
0
0
0
0
0
0
0
0
0
0
0
0
0
0
0
0
0
0
0
0
0
0
0
0
0
0
0
0
0
0
0
)
;

boundaryField
{
    sides
    {
        type            zeroGradient;
    }
    empty
    {
        type            empty;
    }
}


// ************************************************************************* //
