/*--------------------------------*- C++ -*----------------------------------*\
| =========                 |                                                 |
| \\      /  F ield         | OpenFOAM: The Open Source CFD Toolbox           |
|  \\    /   O peration     | Version:  2312                                  |
|   \\  /    A nd           | Website:  www.openfoam.com                      |
|    \\/     M anipulation  |                                                 |
\*---------------------------------------------------------------------------*/
FoamFile
{
    version     2.0;
    format      ascii;
    arch        "LSB;label=32;scalar=64";
    class       volScalarField;
    location    "0.1";
    object      T;
}
// * * * * * * * * * * * * * * * * * * * * * * * * * * * * * * * * * * * * * //

dimensions      [0 0 0 1 0 0 0];

internalField   nonuniform List<scalar> 
1000
(
0
0
0
0
0
0
0
0
0
0
0
0
0
0
0
0
0
0
0
0
0
0
0
0
0
0
0
0
0
0
0
0
0
0
0
0
0
0
0
0
0
0
0
0
0
0
0
0
0
0
0
0
0
0
0
0
0
0
0
0
0
0
0
0
0
0
0
0
0
0
0
0
0
0
0
0
0
0
0
0
0
0
0
0
0
0
0
0
0
0
0
0
0
0
0
0
0
0
0
0
0
0
0
0
0
0
0
0
0
0
0
0
0
0
0
0
0
0
0
0
0
0
0
0
0
0
0
0
0
0
0
0
0
0
0
0
0
0
0
0
0
0
0
0
0
0
0
0
0
0
0
0
0
0
0
0
0
0
0
0
0
0
0
0
0
0
0
0
0
0
0
0
0
-4.94066e-324
2.96439e-323
-4.94066e-324
2.96439e-323
-2.07508e-322
2.86558e-321
-3.67634e-320
4.73177e-319
-6.08719e-318
7.8312e-317
-1.00749e-315
1.29614e-314
-1.66749e-313
2.14523e-312
-2.75984e-311
3.55055e-310
-4.5678e-309
5.87649e-308
-7.56013e-307
9.72615e-306
-1.25127e-304
1.60977e-303
-2.07097e-302
2.66432e-301
-3.42765e-300
4.40969e-299
-5.67309e-298
7.29845e-297
-9.38949e-296
1.20796e-294
-1.55405e-293
1.99929e-292
-2.57209e-291
3.30901e-290
-4.25706e-289
5.47672e-288
-7.04582e-287
9.06448e-286
-1.16615e-284
1.50026e-283
-1.93009e-282
2.48306e-281
-3.19447e-280
4.1097e-279
-5.28715e-278
6.80194e-277
-8.75073e-276
1.12578e-274
-1.44833e-273
1.86328e-272
-2.39712e-271
3.0839e-270
-3.96745e-269
5.10414e-268
-6.5665e-267
8.44783e-266
-1.08682e-264
1.39819e-263
-1.79878e-262
2.31414e-261
-2.97716e-260
3.83012e-259
-4.92747e-258
6.33921e-257
-8.15542e-256
1.0492e-254
-1.3498e-253
1.73652e-252
-2.23404e-251
2.8741e-250
-3.69755e-249
4.75691e-248
-6.11979e-247
7.87313e-246
-1.01288e-244
1.30308e-243
-1.67641e-242
2.15671e-241
-2.77462e-240
3.56956e-239
-4.59226e-238
5.90796e-237
-7.60061e-236
9.77822e-235
-1.25797e-233
1.61839e-232
-2.08206e-231
2.67858e-230
-3.44601e-229
4.4333e-228
-5.70346e-227
7.33753e-226
-9.43976e-225
1.21443e-223
-1.56237e-222
2.00999e-221
-2.58587e-220
3.32673e-219
-4.27985e-218
5.50604e-217
-7.08355e-216
9.11302e-215
-1.17239e-213
1.50829e-212
-1.94042e-211
2.49636e-210
-3.21158e-209
4.13171e-208
-5.31546e-207
6.83836e-206
-8.79758e-205
1.13181e-203
-1.45608e-202
1.87326e-201
-2.40995e-200
3.10041e-199
-3.98869e-198
5.13147e-197
-6.60166e-196
8.49306e-195
-1.09264e-193
1.40568e-192
-1.80841e-191
2.32653e-190
-2.9931e-189
3.85063e-188
-4.95385e-187
6.37315e-186
-8.19909e-185
1.05482e-183
-1.35703e-182
1.74582e-181
-2.246e-180
2.88949e-179
-3.71735e-178
4.78238e-177
-6.15255e-176
7.91529e-175
-1.0183e-173
1.31005e-172
-1.68539e-171
2.16826e-170
-2.78948e-169
3.58867e-168
-4.61684e-167
5.93959e-166
-7.64131e-165
9.83058e-164
-1.26471e-162
1.62705e-161
-2.09321e-160
2.69292e-159
-3.46446e-158
4.45704e-157
-5.734e-156
7.37681e-155
-9.4903e-154
1.22093e-152
-1.57073e-151
2.02076e-150
-2.59971e-149
3.34454e-148
-4.30276e-147
5.53552e-146
-7.12148e-145
9.16181e-144
-1.17867e-142
1.51636e-141
-1.95081e-140
2.50973e-139
-3.22877e-138
4.15383e-137
-5.34392e-136
6.87497e-135
-8.84468e-134
1.13787e-132
-1.46388e-131
1.88328e-130
-2.42285e-129
3.11701e-128
-4.01005e-127
5.15895e-126
-6.63701e-125
8.53854e-124
-1.09849e-122
1.41321e-121
-1.8181e-120
2.33899e-119
-3.00912e-118
3.87125e-117
-4.98038e-116
6.40727e-115
-8.24299e-114
1.06046e-112
-1.36429e-111
1.75517e-110
-2.25803e-109
2.90496e-108
-3.73725e-107
4.80799e-106
-6.1855e-105
7.95767e-104
-1.02376e-102
1.31707e-101
-1.69441e-100
2.17987e-99
-2.80441e-98
3.60789e-97
-4.64156e-96
5.97139e-95
-7.68222e-94
9.88321e-93
-1.27148e-91
1.63576e-90
-2.10442e-89
2.70734e-88
-3.48301e-87
4.4809e-86
-5.7647e-85
7.41631e-84
-9.54112e-83
1.22747e-81
-1.57914e-80
2.03158e-79
-2.61363e-78
3.36245e-77
-4.3258e-76
5.56516e-75
-7.15961e-74
9.21086e-73
-1.18498e-71
1.52448e-70
-1.96125e-69
2.52316e-68
-3.24606e-67
4.17607e-66
-5.37253e-65
6.91178e-64
-8.89204e-63
1.14396e-61
-1.47172e-60
1.89337e-59
-2.43583e-58
3.1337e-57
-4.03152e-56
5.18657e-55
-6.67254e-54
8.58425e-53
-1.10437e-51
1.42077e-50
-1.82783e-49
2.35151e-48
-3.02523e-47
3.89197e-46
-5.00704e-45
6.44158e-44
-8.28712e-43
1.06614e-41
-1.3716e-40
1.76456e-39
-2.27012e-38
2.92052e-37
-3.75726e-36
4.83373e-35
-6.21861e-34
8.00027e-33
-1.02924e-31
1.32412e-30
-1.70349e-29
2.19154e-28
-2.81943e-27
3.62721e-26
-4.66642e-25
6.00336e-24
-7.72335e-23
9.93613e-22
-4.30039e-20
6.78281e-06
0.000152972
0.00160356
0.0103395
0.0457191
0.14629
0.348427
0.627221
0.868621
0.978559
0.998863
0.999986
1
1
1
1
1
1
1
1
1
1
1
1
1
1
1
1
1
1
1
1
1
1
1
1
1
1
1
1
1
1
1
1
1
1
1
1
1
1
1
1
1
1
1
1
1
1
1
1
1
1
1
1
1
1
1
1
1
1
1
1
1
1
1
1
1
1
1
1
1
1
1
1
1
1
1
1
1
1
1
1
1
1
1
1
1
1
1
1
0.999993
0.999845
0.998379
0.989578
0.954034
0.853233
0.651007
0.372439
0.131341
0.0214723
0.00114199
1.37905e-05
2.78078e-08
7.3826e-12
5.6472e-16
4.28346e-20
3.23535e-24
2.44216e-28
1.84679e-32
1.40074e-36
1.06561e-40
8.12478e-45
6.20175e-49
4.73394e-53
3.61029e-57
2.74919e-61
2.08962e-65
1.58519e-69
1.20026e-73
9.07204e-78
6.8461e-82
5.15888e-86
3.8823e-90
2.91793e-94
2.1904e-98
1.64223e-102
1.22968e-106
9.19556e-111
6.86712e-115
5.12107e-119
3.81347e-123
2.83558e-127
2.10529e-131
1.56071e-135
1.15523e-139
8.53773e-144
6.29998e-148
4.64144e-152
3.41411e-156
2.50731e-160
1.83838e-164
1.34571e-168
9.83452e-173
7.17512e-177
5.22604e-181
3.79993e-185
2.75824e-189
1.99863e-193
1.44568e-197
1.04386e-201
7.52381e-206
5.41315e-210
3.88754e-214
2.78679e-218
1.99403e-222
1.42414e-226
1.01522e-230
7.22357e-235
5.13001e-239
3.63627e-243
2.57252e-247
1.81645e-251
1.28011e-255
9.00369e-260
6.32038e-264
4.42803e-268
3.09613e-272
2.16056e-276
1.50469e-280
1.04583e-284
7.25445e-289
5.02198e-293
3.46954e-297
2.39216e-301
1.64601e-305
1.1303e-309
7.74602e-314
5.2976e-318
3.60668e-322
0
0
0
0
0
0
0
0
0
0
0
0
0
0
0
0
0
0
0
0
0
0
0
0
0
0
0
0
0
0
0
0
0
0
0
0
0
0
0
0
0
0
0
0
0
0
0
0
0
0
0
0
0
0
0
0
0
0
0
0
0
0
0
0
0
0
0
0
0
0
0
0
0
0
0
0
0
0
0
0
0
0
0
0
0
0
0
0
0
0
0
0
0
0
0
0
0
0
0
0
0
0
0
0
0
0
0
0
0
0
0
0
0
0
0
0
0
0
0
0
0
0
0
0
0
0
0
0
0
0
0
0
0
0
0
0
0
0
0
0
0
0
0
0
0
0
0
0
0
0
0
0
0
0
0
0
0
0
0
0
0
0
0
0
0
0
0
0
0
0
0
0
0
0
0
0
0
0
0
0
0
0
0
0
0
0
0
0
0
0
0
0
0
0
0
0
0
0
0
0
0
0
0
0
0
0
0
0
0
0
0
0
0
0
0
0
0
0
0
0
0
0
0
0
0
0
0
0
0
0
0
0
0
0
0
0
0
0
0
0
0
0
0
0
0
0
0
0
0
0
0
0
0
0
0
0
0
0
0
0
0
0
0
0
0
0
0
0
0
0
0
0
0
0
0
0
0
0
0
0
0
0
0
0
0
0
0
0
0
0
0
0
0
0
0
0
0
0
0
0
0
0
0
0
0
0
0
0
0
0
0
0
0
0
0
0
0
0
0
0
0
0
0
0
0
0
0
0
0
0
0
0
0
0
0
0
0
0
0
0
0
0
0
0
0
0
0
0
0
0
0
0
0
0
0
0
0
0
0
0
0
)
;

boundaryField
{
    sides
    {
        type            zeroGradient;
    }
    empty
    {
        type            empty;
    }
}


// ************************************************************************* //
