/*--------------------------------*- C++ -*----------------------------------*\
| =========                 |                                                 |
| \\      /  F ield         | OpenFOAM: The Open Source CFD Toolbox           |
|  \\    /   O peration     | Version:  2312                                  |
|   \\  /    A nd           | Website:  www.openfoam.com                      |
|    \\/     M anipulation  |                                                 |
\*---------------------------------------------------------------------------*/
FoamFile
{
    version     2.0;
    format      ascii;
    arch        "LSB;label=32;scalar=64";
    class       volScalarField;
    location    "1.5";
    object      T;
}
// * * * * * * * * * * * * * * * * * * * * * * * * * * * * * * * * * * * * * //

dimensions      [0 0 0 1 0 0 0];

internalField   nonuniform List<scalar> 
1000
(
3.39711e-16
3.43931e-16
3.55622e-16
3.75025e-16
4.02536e-16
4.38719e-16
4.84311e-16
5.40242e-16
6.07648e-16
6.87896e-16
7.82609e-16
8.93694e-16
1.02338e-15
1.17427e-15
1.34936e-15
1.55214e-15
1.78662e-15
2.0574e-15
2.36981e-15
2.72995e-15
3.14483e-15
3.62247e-15
4.17209e-15
4.80423e-15
5.53098e-15
6.36616e-15
7.32559e-15
8.42735e-15
9.69211e-15
1.11435e-14
1.28085e-14
1.4718e-14
1.69071e-14
1.94159e-14
2.22902e-14
2.55823e-14
2.93517e-14
3.36661e-14
3.8603e-14
4.42502e-14
5.0708e-14
5.80904e-14
6.65271e-14
7.61656e-14
8.71738e-14
9.97423e-14
1.14088e-13
1.30456e-13
1.49127e-13
1.70417e-13
1.94688e-13
2.22345e-13
2.53854e-13
2.89739e-13
3.30594e-13
3.77093e-13
4.3e-13
4.90178e-13
5.58606e-13
6.36389e-13
7.2478e-13
8.25192e-13
9.39225e-13
1.06869e-12
1.21561e-12
1.38232e-12
1.57139e-12
1.78578e-12
2.02879e-12
2.30415e-12
2.61607e-12
2.96931e-12
3.36919e-12
3.82175e-12
4.33374e-12
4.91281e-12
5.56753e-12
6.30754e-12
7.14369e-12
8.08819e-12
9.15471e-12
1.03587e-11
1.17173e-11
1.325e-11
1.49786e-11
1.69274e-11
1.91238e-11
2.15986e-11
2.4386e-11
2.75245e-11
3.10574e-11
3.50328e-11
3.95048e-11
4.45339e-11
5.01875e-11
5.65413e-11
6.36796e-11
7.16969e-11
8.06984e-11
9.08018e-11
1.02138e-10
1.14855e-10
1.29114e-10
1.45098e-10
1.6301e-10
1.83077e-10
2.0555e-10
2.30709e-10
2.58867e-10
2.90372e-10
3.25609e-10
3.65008e-10
4.09047e-10
4.58257e-10
5.13227e-10
5.74612e-10
6.43138e-10
7.19611e-10
8.04927e-10
9.00076e-10
1.00616e-09
1.12439e-09
1.25613e-09
1.40287e-09
1.56625e-09
1.74812e-09
1.9505e-09
2.17562e-09
2.42598e-09
2.70429e-09
3.0136e-09
3.35723e-09
3.73888e-09
4.16261e-09
4.63292e-09
5.15475e-09
5.73357e-09
6.37539e-09
7.08684e-09
7.87521e-09
8.74856e-09
9.71572e-09
1.07864e-08
1.19714e-08
1.32824e-08
1.47323e-08
1.63354e-08
1.81073e-08
2.00651e-08
2.22276e-08
2.46155e-08
2.72514e-08
3.01601e-08
3.33688e-08
3.69074e-08
4.08084e-08
4.51076e-08
4.98442e-08
5.50609e-08
6.08045e-08
6.71263e-08
7.40821e-08
8.17331e-08
9.0146e-08
9.93938e-08
1.09556e-07
1.20719e-07
1.32979e-07
1.46437e-07
1.61207e-07
1.77411e-07
1.95183e-07
2.14668e-07
2.36024e-07
2.59423e-07
2.85053e-07
3.13117e-07
3.43836e-07
3.7745e-07
4.14221e-07
4.54433e-07
4.98391e-07
5.46431e-07
5.98913e-07
6.56231e-07
7.18809e-07
7.87109e-07
8.61627e-07
9.42906e-07
1.03153e-06
1.12813e-06
1.23339e-06
1.34804e-06
1.4729e-06
1.60882e-06
1.75672e-06
1.91763e-06
2.09262e-06
2.28286e-06
2.48962e-06
2.71425e-06
2.95822e-06
3.22312e-06
3.51064e-06
3.82261e-06
4.161e-06
4.52794e-06
4.92568e-06
5.35669e-06
5.8236e-06
6.32922e-06
6.87659e-06
7.46896e-06
8.10983e-06
8.80293e-06
9.55228e-06
1.03622e-05
1.12372e-05
1.21824e-05
1.32029e-05
1.43044e-05
1.5493e-05
1.67751e-05
1.81577e-05
1.9648e-05
2.12541e-05
2.29842e-05
2.48474e-05
2.68533e-05
2.90121e-05
3.13346e-05
3.38325e-05
3.65182e-05
3.94047e-05
4.25062e-05
4.58374e-05
4.94144e-05
5.32539e-05
5.73738e-05
6.17932e-05
6.65323e-05
7.16126e-05
7.70568e-05
8.2889e-05
8.9135e-05
9.58218e-05
0.000102978
0.000110635
0.000118823
0.000127579
0.000136937
0.000146935
0.000157615
0.000169018
0.00018119
0.000194179
0.000208034
0.000222808
0.000238558
0.000255342
0.000273222
0.000292263
0.000312535
0.000334109
0.000357062
0.000381474
0.000407429
0.000435015
0.000464325
0.000495457
0.000528513
0.000563601
0.000600832
0.000640326
0.000682204
0.000726598
0.000773642
0.000823478
0.000876254
0.000932126
0.000991255
0.00105381
0.00111997
0.00118992
0.00126384
0.00134195
0.00142445
0.00151155
0.00160349
0.0017005
0.00180283
0.00191072
0.00202446
0.00214431
0.00227056
0.00240351
0.00254346
0.00269075
0.00284569
0.00300864
0.00317994
0.00335998
0.00354913
0.00374779
0.00395636
0.00417527
0.00440495
0.00464585
0.00489845
0.00516321
0.00544063
0.00573121
0.00603549
0.00635401
0.0066873
0.00703596
0.00740055
0.00778169
0.00817999
0.00859608
0.00903062
0.00948426
0.0099577
0.0104516
0.0109668
0.0115038
0.0120636
0.0126468
0.0132542
0.0138866
0.0145449
0.0152298
0.0159422
0.0166829
0.0174529
0.0182529
0.019084
0.0199469
0.0208427
0.0217722
0.0227365
0.0237364
0.0247729
0.0258471
0.0269598
0.0281122
0.0293051
0.0305397
0.0318169
0.0331378
0.0345034
0.0359146
0.0373727
0.0388785
0.0404331
0.0420377
0.0436931
0.0454004
0.0471607
0.0489749
0.0508442
0.0527694
0.0547516
0.0567918
0.058891
0.06105
0.0632699
0.0655516
0.067896
0.0703039
0.0727762
0.0753139
0.0779176
0.0805881
0.0833264
0.0861329
0.0890086
0.091954
0.0949697
0.0980564
0.101215
0.104445
0.107748
0.111123
0.114572
0.118095
0.121691
0.125362
0.129107
0.132926
0.13682
0.140788
0.144831
0.148948
0.15314
0.157405
0.161744
0.166157
0.170642
0.1752
0.179829
0.18453
0.189301
0.194142
0.199052
0.20403
0.209074
0.214185
0.21936
0.224599
0.2299
0.235261
0.240682
0.246161
0.251696
0.257286
0.262928
0.268621
0.274364
0.280153
0.285987
0.291864
0.297782
0.303738
0.30973
0.315755
0.321812
0.327897
0.334008
0.340143
0.346298
0.35247
0.358657
0.364856
0.371065
0.377278
0.383495
0.389712
0.395925
0.402131
0.408327
0.41451
0.420676
0.426823
0.432946
0.439042
0.445109
0.451141
0.457137
0.463092
0.469003
0.474866
0.480678
0.486436
0.492135
0.497773
0.503346
0.50885
0.514283
0.51964
0.524918
0.530114
0.535224
0.540245
0.545175
0.550008
0.554744
0.559377
0.563906
0.568327
0.572637
0.576833
0.580912
0.584873
0.588711
0.592424
0.59601
0.599466
0.60279
0.605979
0.609032
0.611945
0.614718
0.617347
0.619832
0.62217
0.624361
0.626401
0.62829
0.630026
0.631609
0.633036
0.634308
0.635422
0.636379
0.637178
0.637817
0.638297
0.638617
0.638777
0.638777
0.638617
0.638297
0.637817
0.637178
0.636379
0.635422
0.634308
0.633036
0.631609
0.630026
0.62829
0.626401
0.624361
0.62217
0.619832
0.617347
0.614718
0.611945
0.609032
0.605979
0.60279
0.599466
0.59601
0.592424
0.588711
0.584873
0.580912
0.576833
0.572637
0.568327
0.563906
0.559377
0.554744
0.550008
0.545175
0.540245
0.535224
0.530114
0.524918
0.51964
0.514283
0.50885
0.503346
0.497773
0.492135
0.486436
0.480678
0.474866
0.469003
0.463092
0.457137
0.451141
0.445109
0.439042
0.432946
0.426823
0.420676
0.41451
0.408327
0.402131
0.395925
0.389712
0.383495
0.377278
0.371065
0.364856
0.358657
0.35247
0.346298
0.340143
0.334008
0.327897
0.321812
0.315755
0.30973
0.303738
0.297782
0.291864
0.285987
0.280153
0.274364
0.268621
0.262928
0.257286
0.251696
0.246161
0.240682
0.235261
0.2299
0.224599
0.21936
0.214185
0.209074
0.20403
0.199052
0.194142
0.189301
0.18453
0.179829
0.1752
0.170642
0.166157
0.161744
0.157405
0.15314
0.148948
0.144831
0.140788
0.13682
0.132926
0.129107
0.125362
0.121691
0.118095
0.114572
0.111123
0.107748
0.104445
0.101215
0.0980564
0.0949697
0.091954
0.0890086
0.0861329
0.0833264
0.0805881
0.0779176
0.0753139
0.0727762
0.0703039
0.067896
0.0655516
0.0632699
0.06105
0.058891
0.0567918
0.0547516
0.0527694
0.0508442
0.0489749
0.0471607
0.0454004
0.0436931
0.0420377
0.0404331
0.0388785
0.0373727
0.0359146
0.0345034
0.0331378
0.0318169
0.0305397
0.0293051
0.0281122
0.0269598
0.0258471
0.0247729
0.0237364
0.0227365
0.0217722
0.0208427
0.0199469
0.019084
0.0182529
0.0174529
0.0166829
0.0159422
0.0152298
0.0145449
0.0138866
0.0132542
0.0126468
0.0120636
0.0115038
0.0109668
0.0104516
0.0099577
0.00948426
0.00903062
0.00859608
0.00817999
0.00778169
0.00740055
0.00703596
0.0066873
0.00635401
0.00603549
0.00573121
0.00544063
0.00516321
0.00489845
0.00464585
0.00440495
0.00417527
0.00395636
0.00374779
0.00354913
0.00335998
0.00317994
0.00300864
0.00284569
0.00269075
0.00254346
0.00240351
0.00227056
0.00214431
0.00202446
0.00191072
0.00180283
0.0017005
0.00160349
0.00151155
0.00142445
0.00134195
0.00126384
0.00118992
0.00111997
0.00105381
0.000991255
0.000932126
0.000876254
0.000823478
0.000773642
0.000726598
0.000682204
0.000640326
0.000600832
0.000563601
0.000528513
0.000495457
0.000464325
0.000435015
0.000407429
0.000381474
0.000357062
0.000334109
0.000312535
0.000292263
0.000273222
0.000255342
0.000238558
0.000222808
0.000208034
0.000194179
0.00018119
0.000169018
0.000157615
0.000146935
0.000136937
0.000127579
0.000118823
0.000110635
0.000102978
9.58218e-05
8.9135e-05
8.2889e-05
7.70568e-05
7.16126e-05
6.65323e-05
6.17932e-05
5.73738e-05
5.32539e-05
4.94144e-05
4.58374e-05
4.25062e-05
3.94047e-05
3.65182e-05
3.38325e-05
3.13346e-05
2.90121e-05
2.68533e-05
2.48474e-05
2.29842e-05
2.12541e-05
1.9648e-05
1.81577e-05
1.67751e-05
1.5493e-05
1.43044e-05
1.32029e-05
1.21824e-05
1.12372e-05
1.03622e-05
9.55228e-06
8.80293e-06
8.10983e-06
7.46896e-06
6.87659e-06
6.32922e-06
5.8236e-06
5.35669e-06
4.92568e-06
4.52794e-06
4.161e-06
3.82261e-06
3.51064e-06
3.22312e-06
2.95822e-06
2.71425e-06
2.48962e-06
2.28286e-06
2.09262e-06
1.91763e-06
1.75672e-06
1.60882e-06
1.4729e-06
1.34804e-06
1.23339e-06
1.12813e-06
1.03153e-06
9.42906e-07
8.61627e-07
7.87109e-07
7.18809e-07
6.56231e-07
5.98913e-07
5.46431e-07
4.98391e-07
4.54433e-07
4.14221e-07
3.7745e-07
3.43836e-07
3.13117e-07
2.85053e-07
2.59423e-07
2.36024e-07
2.14668e-07
1.95183e-07
1.77411e-07
1.61207e-07
1.46437e-07
1.32979e-07
1.20719e-07
1.09556e-07
9.93938e-08
9.0146e-08
8.17331e-08
7.40821e-08
6.71263e-08
6.08045e-08
5.50609e-08
4.98442e-08
4.51076e-08
4.08084e-08
3.69074e-08
3.33688e-08
3.01601e-08
2.72514e-08
2.46155e-08
2.22276e-08
2.00651e-08
1.81073e-08
1.63354e-08
1.47323e-08
1.32824e-08
1.19714e-08
1.07864e-08
9.71572e-09
8.74856e-09
7.87521e-09
7.08684e-09
6.37539e-09
5.73357e-09
5.15475e-09
4.63292e-09
4.16261e-09
3.73888e-09
3.35723e-09
3.0136e-09
2.70429e-09
2.42598e-09
2.17562e-09
1.9505e-09
1.74812e-09
1.56625e-09
1.40287e-09
1.25613e-09
1.12439e-09
1.00616e-09
9.00076e-10
8.04927e-10
7.19611e-10
6.43138e-10
5.74612e-10
5.13227e-10
4.58257e-10
4.09047e-10
3.65008e-10
3.25609e-10
2.90372e-10
2.58867e-10
2.30709e-10
2.0555e-10
1.83077e-10
1.6301e-10
1.45098e-10
1.29114e-10
1.14855e-10
1.02138e-10
9.08018e-11
8.06984e-11
7.16969e-11
6.36796e-11
5.65413e-11
5.01875e-11
4.45339e-11
3.95048e-11
3.50328e-11
3.10574e-11
2.75245e-11
2.4386e-11
2.15986e-11
1.91238e-11
1.69274e-11
1.49786e-11
1.325e-11
1.17173e-11
1.03587e-11
9.15471e-12
8.08819e-12
7.14369e-12
6.30754e-12
5.56753e-12
4.91281e-12
4.33374e-12
3.82175e-12
3.36919e-12
2.96931e-12
2.61607e-12
2.30415e-12
2.02879e-12
1.78578e-12
1.57139e-12
1.38232e-12
1.21561e-12
1.06869e-12
9.39225e-13
8.25192e-13
7.2478e-13
6.36389e-13
5.58606e-13
4.90178e-13
4.3e-13
3.77093e-13
3.30594e-13
2.89739e-13
2.53854e-13
2.22345e-13
1.94688e-13
1.70417e-13
1.49127e-13
1.30456e-13
1.14088e-13
9.97423e-14
8.71738e-14
7.61656e-14
6.65271e-14
5.80904e-14
5.0708e-14
4.42502e-14
3.8603e-14
3.36661e-14
2.93517e-14
2.55823e-14
2.22902e-14
1.94159e-14
1.69071e-14
1.4718e-14
1.28085e-14
1.11435e-14
9.69211e-15
8.42735e-15
7.32559e-15
6.36616e-15
5.53098e-15
4.80423e-15
4.17209e-15
3.62247e-15
3.14483e-15
2.72995e-15
2.36981e-15
2.0574e-15
1.78662e-15
1.55214e-15
1.34936e-15
1.17427e-15
1.02338e-15
8.93694e-16
7.82609e-16
6.87896e-16
6.07648e-16
5.40242e-16
4.84311e-16
4.38719e-16
4.02536e-16
3.75025e-16
3.55622e-16
3.43931e-16
3.39711e-16
)
;

boundaryField
{
    sides
    {
        type            zeroGradient;
    }
    empty
    {
        type            empty;
    }
}


// ************************************************************************* //
