/*--------------------------------*- C++ -*----------------------------------*\
| =========                 |                                                 |
| \\      /  F ield         | OpenFOAM: The Open Source CFD Toolbox           |
|  \\    /   O peration     | Version:  2312                                  |
|   \\  /    A nd           | Website:  www.openfoam.com                      |
|    \\/     M anipulation  |                                                 |
\*---------------------------------------------------------------------------*/
FoamFile
{
    version     2.0;
    format      ascii;
    arch        "LSB;label=32;scalar=64";
    class       volScalarField;
    location    "0.9";
    object      T;
}
// * * * * * * * * * * * * * * * * * * * * * * * * * * * * * * * * * * * * * //

dimensions      [0 0 0 1 0 0 0];

internalField   nonuniform List<scalar> 
1000
(
5.20995e-227
2.52156e-226
1.44641e-225
8.33179e-225
4.79333e-224
2.75369e-223
1.57968e-222
9.04888e-222
5.17598e-221
2.95637e-220
1.68614e-219
9.60274e-219
5.46085e-218
3.1009e-217
1.75823e-216
9.95454e-216
5.62761e-215
3.17675e-214
1.79058e-213
1.00776e-212
5.66327e-212
3.1778e-211
1.78045e-210
9.96045e-210
5.56376e-209
3.10312e-208
1.72809e-207
9.60878e-207
5.33464e-206
2.95716e-205
1.63672e-204
9.04482e-204
4.9906e-203
2.74935e-202
1.51227e-201
8.30515e-201
4.55391e-200
2.49308e-199
1.36271e-198
7.43672e-198
4.052e-197
2.20427e-196
1.1972e-195
6.49188e-195
3.5146e-194
1.89968e-193
1.02514e-192
5.52307e-192
2.97078e-191
1.59533e-190
8.55302e-190
4.57799e-189
2.44632e-188
1.30507e-187
6.95082e-187
3.69585e-186
1.96186e-185
1.03967e-184
5.50037e-184
2.90508e-183
1.53176e-182
8.06279e-182
4.23685e-181
2.22259e-180
1.16395e-179
6.085e-179
3.17571e-178
1.65452e-177
8.60497e-177
4.46758e-176
2.31546e-175
1.19797e-174
6.18711e-174
3.18983e-173
1.64165e-172
8.4338e-172
4.32508e-171
2.21407e-170
1.13139e-169
5.77101e-169
2.9384e-168
1.49343e-167
7.57657e-167
3.83681e-166
1.93944e-165
9.7856e-165
4.92835e-164
2.47751e-163
1.24316e-162
6.22635e-162
3.11266e-161
1.55317e-160
7.73562e-160
3.84551e-159
1.90807e-158
9.44962e-158
4.671e-157
2.30451e-156
1.1348e-155
5.5773e-155
2.73587e-154
1.33946e-153
6.5452e-153
3.19207e-152
1.55373e-151
7.54796e-151
3.65958e-150
1.77083e-149
8.55197e-149
4.12187e-148
1.9827e-147
9.51819e-147
4.56017e-146
2.1804e-145
1.04043e-144
4.95466e-144
2.35468e-143
1.11677e-142
5.28577e-142
2.49668e-141
1.17685e-140
5.53583e-140
2.59863e-139
1.21731e-138
5.69053e-138
2.65456e-137
1.23572e-136
5.74025e-136
2.66086e-135
1.23081e-134
5.68108e-134
2.61663e-133
1.2026e-132
5.51523e-132
2.52387e-131
1.15246e-130
5.25096e-130
2.38727e-129
1.08296e-128
4.9019e-128
2.21389e-127
9.97667e-127
4.48587e-126
2.01251e-125
9.00851e-125
4.02338e-124
1.79286e-123
7.97109e-123
3.5359e-122
1.56491e-121
6.91006e-121
3.04421e-120
1.33802e-119
5.8674e-119
2.56694e-118
1.1204e-117
4.87875e-117
2.11944e-116
9.18563e-116
3.9716e-115
1.71312e-114
7.37177e-114
3.16456e-113
1.35521e-112
5.78966e-112
2.46742e-111
1.049e-110
4.44882e-110
1.88212e-109
7.94292e-109
3.34378e-108
1.40416e-107
5.8818e-107
2.45764e-106
1.02432e-105
4.25847e-105
1.76593e-104
7.30444e-104
3.01365e-103
1.24018e-102
5.09048e-102
2.08406e-101
8.51011e-101
3.466e-100
1.40795e-99
5.70432e-99
2.30503e-98
9.28964e-98
3.73394e-97
1.49685e-96
5.98443e-96
2.38616e-95
9.48866e-95
3.76298e-94
1.48825e-93
5.86991e-93
2.30885e-92
9.05652e-92
3.54263e-91
1.38192e-90
5.37559e-90
2.08523e-89
8.066e-89
3.11125e-88
1.19668e-87
4.58971e-87
1.75529e-86
6.69366e-86
2.54522e-85
9.65e-85
3.64809e-84
1.3751e-83
5.16805e-83
1.9366e-82
7.23547e-82
2.69527e-81
1.00101e-80
3.7066e-80
1.36837e-79
5.03635e-79
1.84803e-78
6.76047e-78
2.46555e-77
8.96424e-77
3.24915e-76
1.17403e-75
4.22894e-75
1.51853e-74
5.43562e-74
1.93956e-73
6.89884e-73
2.44605e-72
8.64495e-72
3.04553e-71
1.06945e-70
3.74321e-70
1.30591e-69
4.5411e-69
1.57391e-68
5.43702e-68
1.87198e-67
6.42379e-67
2.19698e-66
7.48858e-66
2.54392e-65
8.61256e-65
2.90588e-64
9.77091e-64
3.27413e-63
1.09334e-62
3.63832e-62
1.20651e-61
3.98692e-61
1.31284e-60
4.30773e-60
1.40844e-59
4.58856e-59
1.48954e-58
4.81795e-58
1.55273e-57
4.98594e-57
1.59517e-56
5.08477e-56
1.61484e-55
5.10943e-55
1.61063e-54
5.05813e-54
1.58251e-53
4.93243e-53
1.53152e-52
4.7372e-52
1.45966e-51
4.4803e-51
1.36986e-50
4.17209e-50
1.26569e-49
3.82466e-49
1.15117e-48
3.45111e-48
1.03049e-47
3.06466e-47
9.07758e-47
2.67791e-46
7.86777e-46
2.30212e-45
6.70837e-45
1.94674e-44
5.62594e-44
1.61907e-43
4.63994e-43
1.32412e-42
3.76267e-42
1.06467e-41
2.99966e-41
8.41508e-41
2.35052e-40
6.53702e-40
1.81007e-39
4.99002e-39
1.36959e-38
3.74237e-38
1.01804e-37
2.757e-37
7.43271e-37
1.99475e-36
5.32907e-36
1.41718e-35
3.75143e-35
9.88459e-35
2.59239e-34
6.76721e-34
1.75824e-33
4.54667e-33
1.17016e-32
2.99725e-32
7.64038e-32
1.93826e-31
4.89329e-31
1.22934e-30
3.07337e-30
7.6457e-30
1.89264e-29
4.66181e-29
1.14253e-28
2.78608e-28
6.75964e-28
1.63171e-27
3.91871e-27
9.3629e-27
2.22553e-26
5.2626e-26
1.23794e-25
2.89679e-25
6.74286e-25
1.56123e-24
3.59561e-24
8.23663e-24
1.87666e-23
4.25274e-23
9.58487e-23
2.14845e-22
4.78932e-22
1.06174e-21
2.34071e-21
5.13155e-21
1.11868e-20
2.425e-20
5.22698e-20
1.12023e-19
2.38712e-19
5.05747e-19
1.06531e-18
2.23092e-18
4.64459e-18
9.61288e-18
1.97783e-17
4.04519e-17
8.22416e-17
1.66201e-16
3.3385e-16
6.66549e-16
1.3227e-15
2.60872e-15
5.11347e-15
9.96125e-15
1.92845e-14
3.71009e-14
7.093e-14
1.34751e-13
2.54376e-13
4.77146e-13
8.89286e-13
1.64678e-12
3.02983e-12
5.53832e-12
1.00578e-11
1.81458e-11
3.25227e-11
5.79058e-11
1.02416e-10
1.79935e-10
3.14012e-10
5.44317e-10
9.3717e-10
1.60263e-09
2.72197e-09
4.59153e-09
7.69208e-09
1.27976e-08
2.11448e-08
3.4694e-08
5.65288e-08
9.14617e-08
1.46944e-07
2.3442e-07
3.7133e-07
5.8403e-07
9.12034e-07
1.41409e-06
2.17684e-06
3.32694e-06
5.0481e-06
7.60439e-06
1.13722e-05
1.68836e-05
2.48838e-05
3.64073e-05
5.28783e-05
7.62389e-05
0.000109114
0.000155018
0.000218614
0.000306029
0.00042524
0.000586529
0.000803018
0.00109129
0.00147209
0.00197109
0.00261974
0.00345612
0.00452589
0.0058831
0.007591
0.00972275
0.0123618
0.0156023
0.0195486
0.0243149
0.0300245
0.0368074
0.044799
0.0541367
0.0649567
0.0773902
0.0915589
0.10757
0.125514
0.145453
0.167426
0.191437
0.217455
0.245411
0.275197
0.306666
0.339634
0.37388
0.409156
0.445187
0.481677
0.518323
0.554813
0.590844
0.62612
0.660366
0.693334
0.724803
0.754589
0.782545
0.808563
0.832574
0.854547
0.874486
0.89243
0.908441
0.92261
0.935043
0.945863
0.955201
0.963193
0.969976
0.975685
0.980451
0.984398
0.987638
0.990277
0.992409
0.994117
0.995474
0.996544
0.99738
0.998029
0.998528
0.998909
0.999197
0.999413
0.999575
0.999694
0.999781
0.999845
0.999891
0.999924
0.999947
0.999963
0.999975
0.999983
0.999988
0.999991
0.999994
0.999994
0.999994
0.999994
0.999991
0.999988
0.999983
0.999975
0.999963
0.999947
0.999924
0.999891
0.999845
0.999781
0.999694
0.999575
0.999413
0.999197
0.998909
0.998528
0.998029
0.99738
0.996544
0.995474
0.994117
0.992409
0.990277
0.987638
0.984398
0.980451
0.975685
0.969976
0.963193
0.955201
0.945863
0.935043
0.92261
0.908441
0.89243
0.874486
0.854547
0.832574
0.808563
0.782545
0.754589
0.724803
0.693334
0.660366
0.62612
0.590844
0.554813
0.518323
0.481677
0.445187
0.409156
0.37388
0.339634
0.306666
0.275197
0.245411
0.217455
0.191437
0.167426
0.145453
0.125514
0.10757
0.0915589
0.0773902
0.0649567
0.0541367
0.044799
0.0368074
0.0300245
0.0243149
0.0195486
0.0156023
0.0123618
0.00972275
0.007591
0.0058831
0.00452589
0.00345612
0.00261974
0.00197109
0.00147209
0.00109129
0.000803018
0.000586529
0.00042524
0.000306029
0.000218614
0.000155018
0.000109114
7.62389e-05
5.28783e-05
3.64073e-05
2.48838e-05
1.68836e-05
1.13722e-05
7.60439e-06
5.0481e-06
3.32694e-06
2.17684e-06
1.41409e-06
9.12034e-07
5.8403e-07
3.7133e-07
2.3442e-07
1.46944e-07
9.14617e-08
5.65288e-08
3.4694e-08
2.11448e-08
1.27976e-08
7.69208e-09
4.59153e-09
2.72197e-09
1.60263e-09
9.3717e-10
5.44317e-10
3.14012e-10
1.79935e-10
1.02416e-10
5.79058e-11
3.25227e-11
1.81458e-11
1.00578e-11
5.53832e-12
3.02983e-12
1.64678e-12
8.89286e-13
4.77146e-13
2.54376e-13
1.34751e-13
7.093e-14
3.71009e-14
1.92845e-14
9.96125e-15
5.11347e-15
2.60872e-15
1.3227e-15
6.66549e-16
3.3385e-16
1.66201e-16
8.22416e-17
4.04519e-17
1.97783e-17
9.61288e-18
4.64459e-18
2.23092e-18
1.06531e-18
5.05747e-19
2.38712e-19
1.12023e-19
5.22698e-20
2.425e-20
1.11868e-20
5.13155e-21
2.34071e-21
1.06174e-21
4.78932e-22
2.14845e-22
9.58487e-23
4.25274e-23
1.87666e-23
8.23663e-24
3.59561e-24
1.56123e-24
6.74286e-25
2.89679e-25
1.23794e-25
5.2626e-26
2.22553e-26
9.3629e-27
3.91871e-27
1.63171e-27
6.75964e-28
2.78608e-28
1.14253e-28
4.66181e-29
1.89264e-29
7.6457e-30
3.07337e-30
1.22934e-30
4.89329e-31
1.93826e-31
7.64038e-32
2.99725e-32
1.17016e-32
4.54667e-33
1.75824e-33
6.76721e-34
2.59239e-34
9.88459e-35
3.75143e-35
1.41718e-35
5.32907e-36
1.99475e-36
7.43271e-37
2.757e-37
1.01804e-37
3.74237e-38
1.36959e-38
4.99002e-39
1.81007e-39
6.53702e-40
2.35052e-40
8.41508e-41
2.99966e-41
1.06467e-41
3.76267e-42
1.32412e-42
4.63994e-43
1.61907e-43
5.62594e-44
1.94674e-44
6.70837e-45
2.30212e-45
7.86777e-46
2.67791e-46
9.07758e-47
3.06466e-47
1.03049e-47
3.45111e-48
1.15117e-48
3.82466e-49
1.26569e-49
4.17209e-50
1.36986e-50
4.4803e-51
1.45966e-51
4.7372e-52
1.53152e-52
4.93243e-53
1.58251e-53
5.05813e-54
1.61063e-54
5.10943e-55
1.61484e-55
5.08477e-56
1.59517e-56
4.98594e-57
1.55273e-57
4.81795e-58
1.48954e-58
4.58856e-59
1.40844e-59
4.30773e-60
1.31284e-60
3.98692e-61
1.20651e-61
3.63832e-62
1.09334e-62
3.27413e-63
9.77091e-64
2.90588e-64
8.61256e-65
2.54392e-65
7.48858e-66
2.19698e-66
6.42379e-67
1.87198e-67
5.43702e-68
1.57391e-68
4.5411e-69
1.30591e-69
3.74321e-70
1.06945e-70
3.04553e-71
8.64495e-72
2.44605e-72
6.89884e-73
1.93956e-73
5.43562e-74
1.51853e-74
4.22894e-75
1.17403e-75
3.24915e-76
8.96424e-77
2.46555e-77
6.76047e-78
1.84803e-78
5.03635e-79
1.36837e-79
3.7066e-80
1.00101e-80
2.69527e-81
7.23547e-82
1.9366e-82
5.16805e-83
1.3751e-83
3.64809e-84
9.65e-85
2.54522e-85
6.69366e-86
1.75529e-86
4.58971e-87
1.19668e-87
3.11125e-88
8.066e-89
2.08523e-89
5.37559e-90
1.38192e-90
3.54263e-91
9.05652e-92
2.30885e-92
5.86991e-93
1.48825e-93
3.76298e-94
9.48866e-95
2.38616e-95
5.98443e-96
1.49685e-96
3.73394e-97
9.28964e-98
2.30503e-98
5.70432e-99
1.40795e-99
3.466e-100
8.51011e-101
2.08406e-101
5.09048e-102
1.24018e-102
3.01365e-103
7.30444e-104
1.76593e-104
4.25847e-105
1.02432e-105
2.45764e-106
5.8818e-107
1.40416e-107
3.34378e-108
7.94292e-109
1.88212e-109
4.44882e-110
1.049e-110
2.46742e-111
5.78966e-112
1.35521e-112
3.16456e-113
7.37177e-114
1.71312e-114
3.9716e-115
9.18563e-116
2.11944e-116
4.87875e-117
1.1204e-117
2.56694e-118
5.8674e-119
1.33802e-119
3.04421e-120
6.91006e-121
1.56491e-121
3.5359e-122
7.97109e-123
1.79286e-123
4.02338e-124
9.00851e-125
2.01251e-125
4.48587e-126
9.97667e-127
2.21389e-127
4.9019e-128
1.08296e-128
2.38727e-129
5.25096e-130
1.15246e-130
2.52387e-131
5.51523e-132
1.2026e-132
2.61663e-133
5.68108e-134
1.23081e-134
2.66086e-135
5.74025e-136
1.23572e-136
2.65456e-137
5.69053e-138
1.21731e-138
2.59863e-139
5.53583e-140
1.17685e-140
2.49668e-141
5.28577e-142
1.11677e-142
2.35468e-143
4.95466e-144
1.04043e-144
2.1804e-145
4.56017e-146
9.51819e-147
1.9827e-147
4.12187e-148
8.55197e-149
1.77083e-149
3.65958e-150
7.54796e-151
1.55373e-151
3.19207e-152
6.5452e-153
1.33946e-153
2.73587e-154
5.5773e-155
1.1348e-155
2.30451e-156
4.671e-157
9.44962e-158
1.90807e-158
3.84551e-159
7.73562e-160
1.55317e-160
3.11266e-161
6.22635e-162
1.24316e-162
2.47751e-163
4.92835e-164
9.7856e-165
1.93944e-165
3.83681e-166
7.57657e-167
1.49343e-167
2.9384e-168
5.77101e-169
1.13139e-169
2.21407e-170
4.32508e-171
8.4338e-172
1.64165e-172
3.18983e-173
6.18711e-174
1.19797e-174
2.31546e-175
4.46758e-176
8.60497e-177
1.65452e-177
3.17571e-178
6.085e-179
1.16395e-179
2.22259e-180
4.23685e-181
8.06279e-182
1.53176e-182
2.90508e-183
5.50037e-184
1.03967e-184
1.96186e-185
3.69585e-186
6.95082e-187
1.30507e-187
2.44632e-188
4.57799e-189
8.55302e-190
1.59533e-190
2.97078e-191
5.52307e-192
1.02514e-192
1.89968e-193
3.5146e-194
6.49188e-195
1.1972e-195
2.20427e-196
4.052e-197
7.43672e-198
1.36271e-198
2.49308e-199
4.55391e-200
8.30515e-201
1.51227e-201
2.74935e-202
4.9906e-203
9.04482e-204
1.63672e-204
2.95716e-205
5.33464e-206
9.60878e-207
1.72809e-207
3.10312e-208
5.56376e-209
9.96045e-210
1.78045e-210
3.1778e-211
5.66327e-212
1.00776e-212
1.79058e-213
3.17675e-214
5.62761e-215
9.95454e-216
1.75823e-216
3.1009e-217
5.46085e-218
9.60274e-219
1.68614e-219
2.95637e-220
5.17598e-221
9.04888e-222
1.57968e-222
2.75369e-223
4.79333e-224
8.33179e-225
1.44641e-225
2.52156e-226
5.20995e-227
)
;

boundaryField
{
    sides
    {
        type            zeroGradient;
    }
    empty
    {
        type            empty;
    }
}


// ************************************************************************* //
