/*--------------------------------*- C++ -*----------------------------------*\
| =========                 |                                                 |
| \\      /  F ield         | OpenFOAM: The Open Source CFD Toolbox           |
|  \\    /   O peration     | Version:  2312                                  |
|   \\  /    A nd           | Website:  www.openfoam.com                      |
|    \\/     M anipulation  |                                                 |
\*---------------------------------------------------------------------------*/
FoamFile
{
    version     2.0;
    format      ascii;
    arch        "LSB;label=32;scalar=64";
    class       volScalarField;
    location    "2.1";
    object      T;
}
// * * * * * * * * * * * * * * * * * * * * * * * * * * * * * * * * * * * * * //

dimensions      [0 0 0 1 0 0 0];

internalField   nonuniform List<scalar> 
1000
(
0
0
0
0
0
0
0
0
0
0
0
0
0
0
0
0
0
0
0
0
0
0
0
0
0
0
0
0
0
0
0
0
0
0
0
0
0
0
0
0
0
0
0
0
0
0
0
0
0
0
0
0
0
0
0
0
0
0
0
0
0
0
0
0
0
0
0
0
0
0
0
0
0
0
0
0
0
0
0
0
0
0
0
0
0
0
0
0
0
0
0
0
0
0
0
0
0
0
0
0
0
0
0
0
0
0
0
0
0
0
0
0
0
0
0
0
0
0
0
0
0
0
0
0
0
0
0
0
0
0
0
0
0
0
0
0
0
0
0
0
0
0
0
0
0
0
0
0
0
0
0
0
0
0
0
0
0
0
0
0
0
0
0
0
0
0
0
0
0
0
0
0
0
0
0
0
0
0
0
0
0
0
0
0
0
0
0
0
0
0
0
0
0
0
0
0
0
0
0
0
0
0
0
0
0
0
0
0
0
0
0
0
0
0
0
0
0
0
0
0
0
0
0
0
0
0
0
0
0
0
0
0
0
0
0
0
0
0
0
0
0
0
0
0
0
0
0
0
0
0
0
0
0
0
0
0
0
0
4.44659e-323
7.98904e-321
9.55301e-319
1.1352e-316
1.34243e-314
1.57978e-312
1.85002e-310
2.15585e-308
2.49982e-306
2.88427e-304
3.31122e-302
3.78226e-300
4.29845e-298
4.86025e-296
5.46734e-294
6.1186e-292
6.81197e-290
7.54438e-288
8.31174e-286
9.10884e-284
9.92939e-282
1.07661e-279
1.16105e-277
1.24534e-275
1.32848e-273
1.40941e-271
1.48703e-269
1.56022e-267
1.62788e-265
1.68892e-263
1.74234e-261
1.78721e-259
1.82273e-257
1.84824e-255
1.86321e-253
1.86733e-251
1.86043e-249
1.84258e-247
1.814e-245
1.77514e-243
1.7266e-241
1.66916e-239
1.60373e-237
1.53134e-235
1.45312e-233
1.37025e-231
1.28396e-229
1.19545e-227
1.10591e-225
1.01648e-223
9.28206e-222
8.4205e-220
7.58852e-218
6.7933e-216
6.04068e-214
5.3352e-212
4.68007e-210
4.07726e-208
3.52756e-206
3.03073e-204
2.5856e-202
2.19026e-200
1.84214e-198
1.53822e-196
1.27514e-194
1.04933e-192
8.57149e-191
6.94969e-189
5.59255e-187
4.46646e-185
3.53995e-183
2.78409e-181
2.17266e-179
1.68227e-177
1.29229e-175
9.84823e-174
7.44489e-172
5.58249e-170
4.1518e-168
3.06231e-166
2.23993e-164
1.62464e-162
1.16838e-160
8.3307e-159
5.88857e-157
4.12606e-155
2.86563e-153
1.97254e-151
1.3456e-149
9.09594e-148
6.09235e-146
4.04282e-144
2.6577e-142
1.73064e-140
1.1162e-138
7.12971e-137
4.50969e-135
2.82438e-133
1.75127e-131
1.07495e-129
6.53102e-128
3.92718e-126
2.33688e-124
1.37593e-122
8.01502e-121
4.6186e-119
2.63242e-117
1.48383e-115
8.27056e-114
4.55776e-112
2.48297e-110
1.337e-108
7.11487e-107
3.74122e-105
1.94358e-103
9.9739e-102
5.0551e-100
2.53002e-98
1.25018e-96
6.09817e-95
2.93579e-93
1.39466e-91
6.53651e-90
3.02185e-88
1.37771e-86
6.19322e-85
2.74441e-83
1.19857e-81
5.15772e-80
2.18641e-78
9.12807e-77
3.75224e-75
1.51829e-73
6.04584e-72
2.3685e-70
9.12609e-69
3.45748e-67
1.28756e-65
4.71159e-64
1.69364e-62
5.97831e-61
2.07151e-59
7.04345e-58
2.34915e-56
7.68227e-55
2.46231e-53
7.73187e-52
2.37749e-50
7.15555e-49
2.10691e-47
6.06601e-46
1.70681e-44
4.69081e-43
1.25845e-41
3.29367e-40
8.40431e-39
2.08931e-37
5.05675e-36
1.19063e-34
2.72503e-33
6.05741e-32
1.30656e-30
2.73204e-29
5.53242e-28
1.08378e-26
2.05147e-25
3.74752e-24
6.5978e-23
1.11791e-21
1.82011e-20
2.84276e-19
4.25154e-18
6.07651e-17
8.28179e-16
1.0738e-14
1.32104e-13
1.53757e-12
1.68766e-11
1.74057e-10
1.67992e-09
1.51031e-08
1.25816e-07
9.65287e-07
6.77264e-06
4.30961e-05
0.000246275
0.00124905
0.00554247
0.0211453
0.0679034
0.178986
0.377019
0.622981
0.821014
0.932097
0.978855
0.994458
0.998751
0.999754
0.999957
0.999993
0.999999
1
1
1
1
1
1
1
1
1
1
1
1
1
1
1
1
1
1
1
1
1
1
1
1
1
1
1
1
1
1
1
1
1
1
1
1
1
1
1
1
1
1
1
1
1
1
1
1
1
1
1
1
1
1
1
1
1
1
1
1
1
1
1
1
1
1
1
1
1
1
1
1
1
1
1
1
1
1
1
1
0.999999
0.999993
0.999957
0.999754
0.998751
0.994458
0.978855
0.932097
0.821014
0.622981
0.377019
0.178986
0.0679034
0.0211453
0.00554247
0.00124905
0.000246275
4.30961e-05
6.77264e-06
9.65287e-07
1.25816e-07
1.51031e-08
1.67992e-09
1.74057e-10
1.68766e-11
1.53757e-12
1.32104e-13
1.0738e-14
8.28179e-16
6.07651e-17
4.25154e-18
2.84276e-19
1.82011e-20
1.11791e-21
6.5978e-23
3.74752e-24
2.05147e-25
1.08378e-26
5.53242e-28
2.73204e-29
1.30656e-30
6.05741e-32
2.72503e-33
1.19063e-34
5.05675e-36
2.08931e-37
8.40431e-39
3.29367e-40
1.25845e-41
4.69081e-43
1.70681e-44
6.06601e-46
2.10691e-47
7.15555e-49
2.37749e-50
7.73187e-52
2.46231e-53
7.68227e-55
2.34915e-56
7.04345e-58
2.07151e-59
5.97831e-61
1.69364e-62
4.71159e-64
1.28756e-65
3.45748e-67
9.12609e-69
2.3685e-70
6.04584e-72
1.51829e-73
3.75224e-75
9.12807e-77
2.18641e-78
5.15772e-80
1.19857e-81
2.74441e-83
6.19322e-85
1.37771e-86
3.02185e-88
6.53651e-90
1.39466e-91
2.93579e-93
6.09817e-95
1.25018e-96
2.53002e-98
5.0551e-100
9.9739e-102
1.94358e-103
3.74122e-105
7.11487e-107
1.337e-108
2.48297e-110
4.55776e-112
8.27056e-114
1.48383e-115
2.63242e-117
4.6186e-119
8.01502e-121
1.37593e-122
2.33688e-124
3.92718e-126
6.53102e-128
1.07495e-129
1.75127e-131
2.82438e-133
4.50969e-135
7.12971e-137
1.1162e-138
1.73064e-140
2.6577e-142
4.04282e-144
6.09235e-146
9.09594e-148
1.3456e-149
1.97254e-151
2.86563e-153
4.12606e-155
5.88857e-157
8.3307e-159
1.16838e-160
1.62464e-162
2.23993e-164
3.06231e-166
4.1518e-168
5.58249e-170
7.44489e-172
9.84823e-174
1.29229e-175
1.68227e-177
2.17266e-179
2.78409e-181
3.53995e-183
4.46646e-185
5.59255e-187
6.94969e-189
8.57149e-191
1.04933e-192
1.27514e-194
1.53822e-196
1.84214e-198
2.19026e-200
2.5856e-202
3.03073e-204
3.52756e-206
4.07726e-208
4.68007e-210
5.3352e-212
6.04068e-214
6.7933e-216
7.58852e-218
8.4205e-220
9.28206e-222
1.01648e-223
1.10591e-225
1.19545e-227
1.28396e-229
1.37025e-231
1.45312e-233
1.53134e-235
1.60373e-237
1.66916e-239
1.7266e-241
1.77514e-243
1.814e-245
1.84258e-247
1.86043e-249
1.86733e-251
1.86321e-253
1.84824e-255
1.82273e-257
1.78721e-259
1.74234e-261
1.68892e-263
1.62788e-265
1.56022e-267
1.48703e-269
1.40941e-271
1.32848e-273
1.24534e-275
1.16105e-277
1.07661e-279
9.92939e-282
9.10884e-284
8.31174e-286
7.54438e-288
6.81197e-290
6.1186e-292
5.46734e-294
4.86025e-296
4.29845e-298
3.78226e-300
3.31122e-302
2.88427e-304
2.49982e-306
2.15585e-308
1.85002e-310
1.57978e-312
1.34243e-314
1.1352e-316
9.55301e-319
7.98904e-321
4.44659e-323
0
0
0
0
0
0
0
0
0
0
0
0
0
0
0
0
0
0
0
0
0
0
0
0
0
0
0
0
0
0
0
0
0
0
0
0
0
0
0
0
0
0
0
0
0
0
0
0
0
0
0
0
0
0
0
0
0
0
0
0
0
0
0
0
0
0
0
0
0
0
0
0
0
0
0
0
0
0
0
0
0
0
0
0
0
0
0
0
0
0
0
0
0
0
0
0
0
0
0
0
0
0
0
0
0
0
0
0
0
0
0
0
0
0
0
0
0
0
0
0
0
0
0
0
0
0
0
0
0
0
0
0
0
0
0
0
0
0
0
0
0
0
0
0
0
0
0
0
0
0
0
0
0
0
0
0
0
0
0
0
0
0
0
0
0
0
0
0
0
0
0
0
0
0
0
0
0
0
0
0
0
0
0
0
0
0
0
0
0
0
0
0
0
0
0
0
0
0
0
0
0
0
0
0
0
0
0
0
0
0
0
0
0
0
0
0
0
0
0
0
0
0
0
0
0
0
0
0
0
0
0
0
0
0
0
0
0
0
0
0
0
0
0
0
0
0
0
0
0
0
0
0
0
0
0
0
0
0
)
;

boundaryField
{
    sides
    {
        type            zeroGradient;
    }
    empty
    {
        type            empty;
    }
}


// ************************************************************************* //
