/*--------------------------------*- C++ -*----------------------------------*\
| =========                 |                                                 |
| \\      /  F ield         | OpenFOAM: The Open Source CFD Toolbox           |
|  \\    /   O peration     | Version:  2312                                  |
|   \\  /    A nd           | Website:  www.openfoam.com                      |
|    \\/     M anipulation  |                                                 |
\*---------------------------------------------------------------------------*/
FoamFile
{
    version     2.0;
    format      ascii;
    arch        "LSB;label=32;scalar=64";
    class       volScalarField;
    location    "3.2";
    object      T;
}
// * * * * * * * * * * * * * * * * * * * * * * * * * * * * * * * * * * * * * //

dimensions      [0 0 0 1 0 0 0];

internalField   nonuniform List<scalar> 
1000
(
3.18148e-96
5.77547e-96
1.31976e-95
3.16094e-95
7.62469e-95
1.83923e-94
4.43131e-94
1.06616e-93
2.56144e-93
6.14499e-93
1.47207e-92
3.52133e-92
8.41111e-92
2.00617e-91
4.77805e-91
1.13631e-90
2.69844e-90
6.39867e-90
1.51506e-89
3.58208e-89
8.45668e-89
1.99354e-88
4.69256e-88
1.10294e-87
2.58854e-87
6.06614e-87
1.41947e-86
3.3166e-86
7.73776e-86
1.80256e-85
4.19291e-85
9.73851e-85
2.2585e-84
5.22992e-84
1.20926e-83
2.79182e-83
6.43582e-83
1.48137e-82
3.40463e-82
7.81298e-82
1.79022e-81
4.09578e-81
9.35635e-81
2.1341e-80
4.8603e-80
1.10521e-79
2.50938e-79
5.6888e-79
1.28768e-78
2.91025e-78
6.56726e-78
1.47968e-77
3.32876e-77
7.47696e-77
1.67686e-76
3.75486e-76
8.39492e-76
1.87398e-75
4.17673e-75
9.29461e-75
2.06513e-74
4.58126e-74
1.01471e-73
2.24397e-73
4.95461e-73
1.09224e-72
2.40406e-72
5.28304e-72
1.15914e-71
2.53924e-71
5.55367e-71
1.21274e-70
2.64402e-70
5.75532e-70
1.25078e-69
2.71394e-69
5.87929e-69
1.27161e-68
2.7459e-68
5.91994e-68
1.27424e-67
2.73833e-67
5.87514e-67
1.25849e-66
2.69139e-66
5.74646e-66
1.22495e-65
2.60693e-65
5.53904e-65
1.17498e-64
2.48838e-64
5.26128e-64
1.11059e-63
2.34049e-63
4.9243e-63
1.03435e-62
2.16907e-62
4.54111e-62
9.49147e-62
1.98055e-61
4.12589e-61
8.58081e-61
1.78163e-60
3.69302e-60
7.64225e-60
1.57883e-59
3.2563e-59
6.70477e-59
1.37821e-58
2.82824e-58
5.79411e-58
1.18502e-57
2.41952e-57
4.93174e-57
1.00354e-56
2.03861e-56
4.13423e-56
8.36984e-56
1.69161e-55
3.41304e-55
6.87451e-55
1.38229e-54
2.77467e-54
5.56005e-54
1.11224e-53
2.22113e-53
4.42791e-53
8.812e-53
1.75065e-52
3.47194e-52
6.87373e-52
1.3585e-51
2.68021e-51
5.27866e-51
1.03782e-50
2.03686e-50
3.99061e-50
7.80474e-50
1.52376e-49
2.96968e-49
5.77749e-49
1.12203e-48
2.17522e-48
4.20954e-48
8.132e-48
1.56816e-47
3.01866e-47
5.80049e-47
1.11261e-46
2.13033e-46
4.0717e-46
7.76834e-46
1.47946e-45
2.81255e-45
5.33726e-45
1.01101e-44
1.91166e-44
3.60812e-44
6.79782e-44
1.27842e-43
2.39988e-43
4.49695e-43
8.41121e-43
1.5704e-42
2.92664e-42
5.44424e-42
1.01091e-41
1.87367e-41
3.46641e-41
6.40132e-41
1.17995e-40
2.17098e-40
3.98703e-40
7.30874e-40
1.33731e-39
2.44243e-39
4.45251e-39
8.10184e-39
1.47149e-38
2.6676e-38
4.82699e-38
8.71812e-38
1.57166e-37
2.82801e-37
5.07916e-37
9.10517e-37
1.62918e-36
2.9096e-36
5.18656e-36
9.228e-36
1.63876e-35
2.90471e-35
5.13888e-35
9.07424e-35
1.59929e-34
2.81333e-34
4.93954e-34
8.65616e-34
1.51403e-33
2.64311e-33
4.60536e-33
8.00905e-33
1.39016e-32
2.40832e-32
4.16418e-32
7.18633e-32
1.23779e-31
2.12789e-31
3.651e-31
6.25221e-31
1.06859e-30
1.82284e-30
3.10343e-30
5.27338e-30
8.94314e-30
1.51371e-29
2.55711e-29
4.31126e-29
7.25453e-29
1.21832e-28
2.04203e-28
3.41593e-28
5.70297e-28
9.50248e-28
1.58021e-27
2.62262e-27
4.34407e-27
7.18121e-27
1.18478e-26
1.95081e-26
3.20573e-26
5.25747e-26
8.60518e-26
1.40565e-25
2.29153e-25
3.72825e-25
6.05363e-25
9.80968e-25
1.58644e-24
2.56045e-24
4.12418e-24
6.62953e-24
1.06354e-23
1.70272e-23
2.72056e-23
4.33803e-23
6.90315e-23
1.09628e-22
1.73745e-22
2.74802e-22
4.33754e-22
6.83253e-22
1.07407e-21
1.685e-21
2.638e-21
4.12157e-21
6.42627e-21
9.99919e-21
1.55267e-20
2.40602e-20
3.7207e-20
5.7419e-20
8.8428e-20
1.35902e-19
2.08433e-19
3.19012e-19
4.87245e-19
7.42655e-19
1.1296e-18
1.71459e-18
2.59711e-18
3.92569e-18
5.92157e-18
8.91356e-18
1.33893e-17
2.00704e-17
3.00224e-17
4.4815e-17
6.67561e-17
9.92308e-17
1.47194e-16
2.1788e-16
3.21834e-16
4.74385e-16
6.97772e-16
1.02419e-15
1.50012e-15
2.19257e-15
3.19788e-15
4.65425e-15
6.75952e-15
9.79625e-15
1.41671e-14
2.04445e-14
2.94408e-14
4.23054e-14
6.06619e-14
8.67979e-14
1.23929e-13
1.76568e-13
2.51026e-13
3.56119e-13
5.04128e-13
7.12124e-13
1.00378e-12
1.41184e-12
1.98153e-12
2.77512e-12
3.87817e-12
5.40799e-12
7.52503e-12
1.04483e-11
1.44757e-11
2.00124e-11
2.7607e-11
3.80013e-11
5.21959e-11
7.15376e-11
9.78341e-11
1.33507e-10
1.81792e-10
2.47002e-10
3.34876e-10
4.53025e-10
6.11526e-10
8.23686e-10
1.10704e-09
1.48462e-09
1.98666e-09
2.65266e-09
3.53421e-09
4.69845e-09
6.23257e-09
8.24955e-09
1.08954e-08
1.43584e-08
1.88807e-08
2.4773e-08
3.2433e-08
4.23686e-08
5.52266e-08
7.18291e-08
9.3218e-08
1.20711e-07
1.55969e-07
2.01084e-07
2.58679e-07
3.32041e-07
4.25273e-07
5.43487e-07
6.93036e-07
8.81795e-07
1.1195e-06
1.41816e-06
1.79255e-06
2.2608e-06
2.8451e-06
3.57255e-06
4.47613e-06
5.59593e-06
6.9805e-06
8.68851e-06
1.07907e-05
1.3372e-05
1.65345e-05
2.04e-05
2.51139e-05
3.08492e-05
3.78111e-05
4.62425e-05
5.64299e-05
6.87108e-05
8.3481e-05
0.000101204
0.000122421
0.000147762
0.000177958
0.000213857
0.000256436
0.000306822
0.000366306
0.000436369
0.000518701
0.000615225
0.000728125
0.000859869
0.00101325
0.0011914
0.00139783
0.00163649
0.00191176
0.0022285
0.00259213
0.0030086
0.00348448
0.00402698
0.00464396
0.00534402
0.00613649
0.00703145
0.00803979
0.00917323
0.0104443
0.0118663
0.0134535
0.015221
0.0171844
0.0193606
0.0217668
0.0244211
0.0273422
0.0305493
0.0340622
0.037901
0.0420861
0.0466378
0.0515768
0.0569232
0.0626971
0.0689179
0.0756045
0.0827747
0.0904454
0.0986322
0.107349
0.116609
0.126421
0.136795
0.147737
0.159251
0.171338
0.183996
0.197221
0.211005
0.22534
0.24021
0.255601
0.271491
0.28786
0.30468
0.321924
0.339561
0.357557
0.375875
0.394478
0.413324
0.432373
0.451581
0.470902
0.490293
0.509706
0.529096
0.548418
0.567625
0.586674
0.60552
0.624122
0.64244
0.660434
0.67807
0.695313
0.712132
0.728498
0.744386
0.759773
0.77464
0.788969
0.802749
0.815967
0.828616
0.840692
0.852194
0.863121
0.873478
0.883269
0.892503
0.90119
0.909341
0.916969
0.924089
0.930716
0.936867
0.942558
0.947808
0.952634
0.957054
0.961086
0.964746
0.968053
0.971021
0.973667
0.976005
0.978047
0.979807
0.981295
0.982519
0.98349
0.984212
0.98469
0.984929
0.984929
0.98469
0.984212
0.98349
0.982519
0.981295
0.979807
0.978047
0.976005
0.973667
0.971021
0.968053
0.964746
0.961086
0.957054
0.952634
0.947808
0.942558
0.936867
0.930716
0.924089
0.916969
0.909341
0.90119
0.892503
0.883269
0.873478
0.863121
0.852194
0.840692
0.828616
0.815967
0.802749
0.788969
0.77464
0.759773
0.744386
0.728498
0.712132
0.695313
0.67807
0.660434
0.64244
0.624122
0.60552
0.586674
0.567625
0.548418
0.529096
0.509706
0.490293
0.470902
0.451581
0.432373
0.413324
0.394478
0.375875
0.357557
0.339561
0.321924
0.30468
0.28786
0.271491
0.255601
0.24021
0.22534
0.211005
0.197221
0.183996
0.171338
0.159251
0.147737
0.136795
0.126421
0.116609
0.107349
0.0986322
0.0904454
0.0827747
0.0756045
0.0689179
0.0626971
0.0569232
0.0515768
0.0466378
0.0420861
0.037901
0.0340622
0.0305493
0.0273422
0.0244211
0.0217668
0.0193606
0.0171844
0.015221
0.0134535
0.0118663
0.0104443
0.00917323
0.00803979
0.00703145
0.00613649
0.00534402
0.00464396
0.00402698
0.00348448
0.0030086
0.00259213
0.0022285
0.00191176
0.00163649
0.00139783
0.0011914
0.00101325
0.000859869
0.000728125
0.000615225
0.000518701
0.000436369
0.000366306
0.000306822
0.000256436
0.000213857
0.000177958
0.000147762
0.000122421
0.000101204
8.3481e-05
6.87108e-05
5.64299e-05
4.62425e-05
3.78111e-05
3.08492e-05
2.51139e-05
2.04e-05
1.65345e-05
1.3372e-05
1.07907e-05
8.68851e-06
6.9805e-06
5.59593e-06
4.47613e-06
3.57255e-06
2.8451e-06
2.2608e-06
1.79255e-06
1.41816e-06
1.1195e-06
8.81795e-07
6.93036e-07
5.43487e-07
4.25273e-07
3.32041e-07
2.58679e-07
2.01084e-07
1.55969e-07
1.20711e-07
9.3218e-08
7.18291e-08
5.52266e-08
4.23686e-08
3.2433e-08
2.4773e-08
1.88807e-08
1.43584e-08
1.08954e-08
8.24955e-09
6.23257e-09
4.69845e-09
3.53421e-09
2.65266e-09
1.98666e-09
1.48462e-09
1.10704e-09
8.23686e-10
6.11526e-10
4.53025e-10
3.34876e-10
2.47002e-10
1.81792e-10
1.33507e-10
9.78341e-11
7.15376e-11
5.21959e-11
3.80013e-11
2.7607e-11
2.00124e-11
1.44757e-11
1.04483e-11
7.52503e-12
5.40799e-12
3.87817e-12
2.77512e-12
1.98153e-12
1.41184e-12
1.00378e-12
7.12124e-13
5.04128e-13
3.56119e-13
2.51026e-13
1.76568e-13
1.23929e-13
8.67979e-14
6.06619e-14
4.23054e-14
2.94408e-14
2.04445e-14
1.41671e-14
9.79625e-15
6.75952e-15
4.65425e-15
3.19788e-15
2.19257e-15
1.50012e-15
1.02419e-15
6.97772e-16
4.74385e-16
3.21834e-16
2.1788e-16
1.47194e-16
9.92308e-17
6.67561e-17
4.4815e-17
3.00224e-17
2.00704e-17
1.33893e-17
8.91356e-18
5.92157e-18
3.92569e-18
2.59711e-18
1.71459e-18
1.1296e-18
7.42655e-19
4.87245e-19
3.19012e-19
2.08433e-19
1.35902e-19
8.8428e-20
5.7419e-20
3.7207e-20
2.40602e-20
1.55267e-20
9.99919e-21
6.42627e-21
4.12157e-21
2.638e-21
1.685e-21
1.07407e-21
6.83253e-22
4.33754e-22
2.74802e-22
1.73745e-22
1.09628e-22
6.90315e-23
4.33803e-23
2.72056e-23
1.70272e-23
1.06354e-23
6.62953e-24
4.12418e-24
2.56045e-24
1.58644e-24
9.80968e-25
6.05363e-25
3.72825e-25
2.29153e-25
1.40565e-25
8.60518e-26
5.25747e-26
3.20573e-26
1.95081e-26
1.18478e-26
7.18121e-27
4.34407e-27
2.62262e-27
1.58021e-27
9.50248e-28
5.70297e-28
3.41593e-28
2.04203e-28
1.21832e-28
7.25453e-29
4.31126e-29
2.55711e-29
1.51371e-29
8.94314e-30
5.27338e-30
3.10343e-30
1.82284e-30
1.06859e-30
6.25221e-31
3.651e-31
2.12789e-31
1.23779e-31
7.18633e-32
4.16418e-32
2.40832e-32
1.39016e-32
8.00905e-33
4.60536e-33
2.64311e-33
1.51403e-33
8.65616e-34
4.93954e-34
2.81333e-34
1.59929e-34
9.07424e-35
5.13888e-35
2.90471e-35
1.63876e-35
9.228e-36
5.18656e-36
2.9096e-36
1.62918e-36
9.10517e-37
5.07916e-37
2.82801e-37
1.57166e-37
8.71812e-38
4.82699e-38
2.6676e-38
1.47149e-38
8.10184e-39
4.45251e-39
2.44243e-39
1.33731e-39
7.30874e-40
3.98703e-40
2.17098e-40
1.17995e-40
6.40132e-41
3.46641e-41
1.87367e-41
1.01091e-41
5.44424e-42
2.92664e-42
1.5704e-42
8.41121e-43
4.49695e-43
2.39988e-43
1.27842e-43
6.79782e-44
3.60812e-44
1.91166e-44
1.01101e-44
5.33726e-45
2.81255e-45
1.47946e-45
7.76834e-46
4.0717e-46
2.13033e-46
1.11261e-46
5.80049e-47
3.01866e-47
1.56816e-47
8.132e-48
4.20954e-48
2.17522e-48
1.12203e-48
5.77749e-49
2.96968e-49
1.52376e-49
7.80474e-50
3.99061e-50
2.03686e-50
1.03782e-50
5.27866e-51
2.68021e-51
1.3585e-51
6.87373e-52
3.47194e-52
1.75065e-52
8.812e-53
4.42791e-53
2.22113e-53
1.11224e-53
5.56005e-54
2.77467e-54
1.38229e-54
6.87451e-55
3.41304e-55
1.69161e-55
8.36984e-56
4.13423e-56
2.03861e-56
1.00354e-56
4.93174e-57
2.41952e-57
1.18502e-57
5.79411e-58
2.82824e-58
1.37821e-58
6.70477e-59
3.2563e-59
1.57883e-59
7.64225e-60
3.69302e-60
1.78163e-60
8.58081e-61
4.12589e-61
1.98055e-61
9.49147e-62
4.54111e-62
2.16907e-62
1.03435e-62
4.9243e-63
2.34049e-63
1.11059e-63
5.26128e-64
2.48838e-64
1.17498e-64
5.53904e-65
2.60693e-65
1.22495e-65
5.74646e-66
2.69139e-66
1.25849e-66
5.87514e-67
2.73833e-67
1.27424e-67
5.91994e-68
2.7459e-68
1.27161e-68
5.87929e-69
2.71394e-69
1.25078e-69
5.75532e-70
2.64402e-70
1.21274e-70
5.55367e-71
2.53924e-71
1.15914e-71
5.28304e-72
2.40406e-72
1.09224e-72
4.95461e-73
2.24397e-73
1.01471e-73
4.58126e-74
2.06513e-74
9.29461e-75
4.17673e-75
1.87398e-75
8.39492e-76
3.75486e-76
1.67686e-76
7.47696e-77
3.32876e-77
1.47968e-77
6.56726e-78
2.91025e-78
1.28768e-78
5.6888e-79
2.50938e-79
1.10521e-79
4.8603e-80
2.1341e-80
9.35635e-81
4.09578e-81
1.79022e-81
7.81298e-82
3.40463e-82
1.48137e-82
6.43582e-83
2.79182e-83
1.20926e-83
5.22992e-84
2.2585e-84
9.73851e-85
4.19291e-85
1.80256e-85
7.73776e-86
3.3166e-86
1.41947e-86
6.06614e-87
2.58854e-87
1.10294e-87
4.69256e-88
1.99354e-88
8.45668e-89
3.58208e-89
1.51506e-89
6.39867e-90
2.69844e-90
1.13631e-90
4.77805e-91
2.00617e-91
8.41111e-92
3.52133e-92
1.47207e-92
6.14499e-93
2.56144e-93
1.06616e-93
4.43131e-94
1.83923e-94
7.62469e-95
3.16094e-95
1.31976e-95
5.77547e-96
3.18148e-96
)
;

boundaryField
{
    sides
    {
        type            zeroGradient;
    }
    empty
    {
        type            empty;
    }
}


// ************************************************************************* //
