/*--------------------------------*- C++ -*----------------------------------*\
| =========                 |                                                 |
| \\      /  F ield         | OpenFOAM: The Open Source CFD Toolbox           |
|  \\    /   O peration     | Version:  2312                                  |
|   \\  /    A nd           | Website:  www.openfoam.com                      |
|    \\/     M anipulation  |                                                 |
\*---------------------------------------------------------------------------*/
FoamFile
{
    version     2.0;
    format      ascii;
    arch        "LSB;label=32;scalar=64";
    class       volScalarField;
    location    "4.8";
    object      T;
}
// * * * * * * * * * * * * * * * * * * * * * * * * * * * * * * * * * * * * * //

dimensions      [0 0 0 1 0 0 0];

internalField   nonuniform List<scalar> 
1000
(
4.49882e-06
4.50467e-06
4.52075e-06
4.54711e-06
4.5838e-06
4.63087e-06
4.68842e-06
4.75655e-06
4.8354e-06
4.9251e-06
5.02583e-06
5.13777e-06
5.26113e-06
5.39613e-06
5.54303e-06
5.70209e-06
5.87361e-06
6.0579e-06
6.25531e-06
6.46618e-06
6.6909e-06
6.92989e-06
7.18357e-06
7.4524e-06
7.73687e-06
8.03748e-06
8.35477e-06
8.68932e-06
9.0417e-06
9.41256e-06
9.80253e-06
1.02123e-05
1.06426e-05
1.10942e-05
1.15678e-05
1.20643e-05
1.25846e-05
1.31294e-05
1.36999e-05
1.42968e-05
1.49213e-05
1.55744e-05
1.62571e-05
1.69707e-05
1.77163e-05
1.84952e-05
1.93086e-05
2.01578e-05
2.10443e-05
2.19695e-05
2.29349e-05
2.3942e-05
2.49925e-05
2.6088e-05
2.72303e-05
2.84211e-05
2.96624e-05
3.0956e-05
3.2304e-05
3.37084e-05
3.51715e-05
3.66954e-05
3.82824e-05
3.99351e-05
4.16557e-05
4.3447e-05
4.53115e-05
4.72521e-05
4.92716e-05
5.13729e-05
5.35591e-05
5.58334e-05
5.8199e-05
6.06593e-05
6.32178e-05
6.58781e-05
6.8644e-05
7.15193e-05
7.4508e-05
7.76143e-05
8.08425e-05
8.41968e-05
8.76819e-05
9.13025e-05
9.50634e-05
9.89697e-05
0.000103027
0.000107239
0.000111613
0.000116154
0.000120869
0.000125762
0.00013084
0.00013611
0.000141579
0.000147253
0.000153139
0.000159244
0.000165577
0.000172145
0.000178956
0.000186017
0.000193339
0.000200928
0.000208795
0.000216949
0.000225399
0.000234154
0.000243226
0.000252624
0.00026236
0.000272443
0.000282887
0.000293701
0.000304899
0.000316492
0.000328494
0.000340917
0.000353775
0.000367082
0.000380852
0.000395099
0.000409838
0.000425085
0.000440856
0.000457167
0.000474034
0.000491475
0.000509508
0.00052815
0.000547419
0.000567336
0.00058792
0.000609189
0.000631167
0.000653872
0.000677327
0.000701554
0.000726576
0.000752416
0.000779098
0.000806647
0.000835087
0.000864445
0.000894747
0.000926019
0.000958289
0.000991587
0.00102594
0.00106138
0.00109793
0.00113563
0.00117451
0.0012146
0.00125594
0.00129856
0.00134248
0.00138776
0.00143442
0.00148251
0.00153206
0.0015831
0.00163569
0.00168986
0.00174564
0.0018031
0.00186226
0.00192317
0.00198588
0.00205043
0.00211687
0.00218525
0.00225561
0.00232802
0.00240251
0.00247913
0.00255796
0.00263903
0.0027224
0.00280812
0.00289626
0.00298688
0.00308003
0.00317577
0.00327416
0.00337527
0.00347916
0.0035859
0.00369555
0.00380818
0.00392385
0.00404264
0.00416462
0.00428986
0.00441843
0.00455041
0.00468587
0.00482488
0.00496754
0.00511391
0.00526408
0.00541812
0.00557613
0.00573818
0.00590436
0.00607476
0.00624946
0.00642856
0.00661215
0.00680031
0.00699313
0.00719073
0.00739318
0.00760058
0.00781304
0.00803065
0.00825352
0.00848174
0.00871541
0.00895465
0.00919956
0.00945024
0.0097068
0.00996935
0.010238
0.0105129
0.010794
0.0110817
0.0113758
0.0116767
0.0119843
0.0122988
0.0126204
0.0129491
0.013285
0.0136284
0.0139792
0.0143377
0.0147039
0.0150781
0.0154602
0.0158504
0.016249
0.0166559
0.0170714
0.0174955
0.0179284
0.0183702
0.018821
0.0192811
0.0197505
0.0202293
0.0207177
0.0212159
0.0217239
0.0222419
0.02277
0.0233084
0.0238572
0.0244166
0.0249866
0.0255675
0.0261593
0.0267622
0.0273763
0.0280018
0.0286388
0.0292875
0.0299479
0.0306203
0.0313047
0.0320012
0.0327101
0.0334315
0.0341654
0.0349121
0.0356716
0.0364441
0.0372297
0.0380286
0.0388408
0.0396665
0.0405058
0.0413589
0.0422259
0.0431068
0.0440018
0.0449111
0.0458347
0.0467728
0.0477254
0.0486927
0.0496748
0.0506718
0.0516838
0.0527109
0.0537532
0.0548108
0.0558838
0.0569723
0.0580764
0.0591961
0.0603315
0.0614828
0.06265
0.0638332
0.0650324
0.0662477
0.0674792
0.0687269
0.069991
0.0712714
0.0725682
0.0738814
0.0752112
0.0765574
0.0779203
0.0792997
0.0806957
0.0821084
0.0835378
0.0849838
0.0864465
0.0879258
0.0894219
0.0909346
0.092464
0.09401
0.0955726
0.0971518
0.0987476
0.10036
0.101989
0.103634
0.105296
0.106974
0.108668
0.110378
0.112105
0.113847
0.115606
0.11738
0.11917
0.120976
0.122797
0.124633
0.126485
0.128352
0.130234
0.132131
0.134043
0.135969
0.137909
0.139864
0.141833
0.143816
0.145812
0.147822
0.149845
0.151882
0.153931
0.155992
0.158067
0.160153
0.162251
0.164361
0.166482
0.168615
0.170758
0.172912
0.175077
0.177251
0.179435
0.181629
0.183832
0.186044
0.188264
0.190492
0.192728
0.194972
0.197223
0.199481
0.201745
0.204015
0.206292
0.208573
0.21086
0.213151
0.215446
0.217745
0.220048
0.222353
0.224661
0.226972
0.229284
0.231597
0.233912
0.236226
0.238541
0.240856
0.243169
0.245482
0.247792
0.250101
0.252406
0.254709
0.257008
0.259302
0.261592
0.263878
0.266157
0.268431
0.270698
0.272958
0.27521
0.277455
0.279691
0.281918
0.284136
0.286344
0.288541
0.290727
0.292902
0.295065
0.297215
0.299352
0.301476
0.303586
0.305682
0.307762
0.309827
0.311876
0.313909
0.315924
0.317922
0.319902
0.321864
0.323807
0.32573
0.327633
0.329516
0.331378
0.333219
0.335038
0.336835
0.338609
0.34036
0.342087
0.34379
0.345468
0.347122
0.34875
0.350352
0.351928
0.353478
0.355
0.356495
0.357961
0.3594
0.36081
0.36219
0.363542
0.364863
0.366154
0.367415
0.368645
0.369844
0.371011
0.372146
0.373249
0.37432
0.375358
0.376363
0.377334
0.378272
0.379176
0.380046
0.380881
0.381682
0.382448
0.383179
0.383875
0.384535
0.385159
0.385748
0.386301
0.386818
0.387298
0.387742
0.388149
0.38852
0.388854
0.389151
0.389411
0.389634
0.38982
0.389969
0.390081
0.390155
0.390193
0.390193
0.390155
0.390081
0.389969
0.38982
0.389634
0.389411
0.389151
0.388854
0.38852
0.388149
0.387742
0.387298
0.386818
0.386301
0.385748
0.385159
0.384535
0.383875
0.383179
0.382448
0.381682
0.380881
0.380046
0.379176
0.378272
0.377334
0.376363
0.375358
0.37432
0.373249
0.372146
0.371011
0.369844
0.368645
0.367415
0.366154
0.364863
0.363542
0.36219
0.36081
0.3594
0.357961
0.356495
0.355
0.353478
0.351928
0.350352
0.34875
0.347122
0.345468
0.34379
0.342087
0.34036
0.338609
0.336835
0.335038
0.333219
0.331378
0.329516
0.327633
0.32573
0.323807
0.321864
0.319902
0.317922
0.315924
0.313909
0.311876
0.309827
0.307762
0.305682
0.303586
0.301476
0.299352
0.297215
0.295065
0.292902
0.290727
0.288541
0.286344
0.284136
0.281918
0.279691
0.277455
0.27521
0.272958
0.270698
0.268431
0.266157
0.263878
0.261592
0.259302
0.257008
0.254709
0.252406
0.250101
0.247792
0.245482
0.243169
0.240856
0.238541
0.236226
0.233912
0.231597
0.229284
0.226972
0.224661
0.222353
0.220048
0.217745
0.215446
0.213151
0.21086
0.208573
0.206292
0.204015
0.201745
0.199481
0.197223
0.194972
0.192728
0.190492
0.188264
0.186044
0.183832
0.181629
0.179435
0.177251
0.175077
0.172912
0.170758
0.168615
0.166482
0.164361
0.162251
0.160153
0.158067
0.155992
0.153931
0.151882
0.149845
0.147822
0.145812
0.143816
0.141833
0.139864
0.137909
0.135969
0.134043
0.132131
0.130234
0.128352
0.126485
0.124633
0.122797
0.120976
0.11917
0.11738
0.115606
0.113847
0.112105
0.110378
0.108668
0.106974
0.105296
0.103634
0.101989
0.10036
0.0987476
0.0971518
0.0955726
0.09401
0.092464
0.0909346
0.0894219
0.0879258
0.0864465
0.0849838
0.0835378
0.0821084
0.0806957
0.0792997
0.0779203
0.0765574
0.0752112
0.0738814
0.0725682
0.0712714
0.069991
0.0687269
0.0674792
0.0662477
0.0650324
0.0638332
0.06265
0.0614828
0.0603315
0.0591961
0.0580764
0.0569723
0.0558838
0.0548108
0.0537532
0.0527109
0.0516838
0.0506718
0.0496748
0.0486927
0.0477254
0.0467728
0.0458347
0.0449111
0.0440018
0.0431068
0.0422259
0.0413589
0.0405058
0.0396665
0.0388408
0.0380286
0.0372297
0.0364441
0.0356716
0.0349121
0.0341654
0.0334315
0.0327101
0.0320012
0.0313047
0.0306203
0.0299479
0.0292875
0.0286388
0.0280018
0.0273763
0.0267622
0.0261593
0.0255675
0.0249866
0.0244166
0.0238572
0.0233084
0.02277
0.0222419
0.0217239
0.0212159
0.0207177
0.0202293
0.0197505
0.0192811
0.018821
0.0183702
0.0179284
0.0174955
0.0170714
0.0166559
0.016249
0.0158504
0.0154602
0.0150781
0.0147039
0.0143377
0.0139792
0.0136284
0.013285
0.0129491
0.0126204
0.0122988
0.0119843
0.0116767
0.0113758
0.0110817
0.010794
0.0105129
0.010238
0.00996935
0.0097068
0.00945024
0.00919956
0.00895465
0.00871541
0.00848174
0.00825352
0.00803065
0.00781304
0.00760058
0.00739318
0.00719073
0.00699313
0.00680031
0.00661215
0.00642856
0.00624946
0.00607476
0.00590436
0.00573818
0.00557613
0.00541812
0.00526408
0.00511391
0.00496754
0.00482488
0.00468587
0.00455041
0.00441843
0.00428986
0.00416462
0.00404264
0.00392385
0.00380818
0.00369555
0.0035859
0.00347916
0.00337527
0.00327416
0.00317577
0.00308003
0.00298688
0.00289626
0.00280812
0.0027224
0.00263903
0.00255796
0.00247913
0.00240251
0.00232802
0.00225561
0.00218525
0.00211687
0.00205043
0.00198588
0.00192317
0.00186226
0.0018031
0.00174564
0.00168986
0.00163569
0.0015831
0.00153206
0.00148251
0.00143442
0.00138776
0.00134248
0.00129856
0.00125594
0.0012146
0.00117451
0.00113563
0.00109793
0.00106138
0.00102594
0.000991587
0.000958289
0.000926019
0.000894747
0.000864445
0.000835087
0.000806647
0.000779098
0.000752416
0.000726576
0.000701554
0.000677327
0.000653872
0.000631167
0.000609189
0.00058792
0.000567336
0.000547419
0.00052815
0.000509508
0.000491475
0.000474034
0.000457167
0.000440856
0.000425085
0.000409838
0.000395099
0.000380852
0.000367082
0.000353775
0.000340917
0.000328494
0.000316492
0.000304899
0.000293701
0.000282887
0.000272443
0.00026236
0.000252624
0.000243226
0.000234154
0.000225399
0.000216949
0.000208795
0.000200928
0.000193339
0.000186017
0.000178956
0.000172145
0.000165577
0.000159244
0.000153139
0.000147253
0.000141579
0.00013611
0.00013084
0.000125762
0.000120869
0.000116154
0.000111613
0.000107239
0.000103027
9.89697e-05
9.50634e-05
9.13025e-05
8.76819e-05
8.41968e-05
8.08425e-05
7.76143e-05
7.4508e-05
7.15193e-05
6.8644e-05
6.58781e-05
6.32178e-05
6.06593e-05
5.8199e-05
5.58334e-05
5.35591e-05
5.13729e-05
4.92716e-05
4.72521e-05
4.53115e-05
4.3447e-05
4.16557e-05
3.99351e-05
3.82824e-05
3.66954e-05
3.51715e-05
3.37084e-05
3.2304e-05
3.0956e-05
2.96624e-05
2.84211e-05
2.72303e-05
2.6088e-05
2.49925e-05
2.3942e-05
2.29349e-05
2.19695e-05
2.10443e-05
2.01578e-05
1.93086e-05
1.84952e-05
1.77163e-05
1.69707e-05
1.62571e-05
1.55744e-05
1.49213e-05
1.42968e-05
1.36999e-05
1.31294e-05
1.25846e-05
1.20643e-05
1.15678e-05
1.10942e-05
1.06426e-05
1.02123e-05
9.80253e-06
9.41256e-06
9.0417e-06
8.68932e-06
8.35477e-06
8.03748e-06
7.73687e-06
7.4524e-06
7.18357e-06
6.92989e-06
6.6909e-06
6.46618e-06
6.25531e-06
6.0579e-06
5.87361e-06
5.70209e-06
5.54303e-06
5.39613e-06
5.26113e-06
5.13777e-06
5.02583e-06
4.9251e-06
4.8354e-06
4.75655e-06
4.68842e-06
4.63087e-06
4.5838e-06
4.54711e-06
4.52075e-06
4.50467e-06
4.49882e-06
)
;

boundaryField
{
    sides
    {
        type            zeroGradient;
    }
    empty
    {
        type            empty;
    }
}


// ************************************************************************* //
