/*--------------------------------*- C++ -*----------------------------------*\
| =========                 |                                                 |
| \\      /  F ield         | OpenFOAM: The Open Source CFD Toolbox           |
|  \\    /   O peration     | Version:  2312                                  |
|   \\  /    A nd           | Website:  www.openfoam.com                      |
|    \\/     M anipulation  |                                                 |
\*---------------------------------------------------------------------------*/
FoamFile
{
    version     2.0;
    format      ascii;
    arch        "LSB;label=32;scalar=64";
    class       volScalarField;
    location    "2.7";
    object      T;
}
// * * * * * * * * * * * * * * * * * * * * * * * * * * * * * * * * * * * * * //

dimensions      [0 0 0 1 0 0 0];

internalField   nonuniform List<scalar> 
1000
(
0
0
0
0
0
0
0
0
0
0
0
0
0
0
0
0
0
0
0
0
0
0
0
0
0
0
0
0
0
0
0
0
0
0
0
0
0
0
0
0
0
0
0
0
0
0
0
0
0
0
0
0
0
0
0
0
0
0
0
0
0
0
0
0
0
0
0
0
0
0
0
0
0
0
0
0
0
0
0
0
0
0
0
0
0
0
0
0
0
0
0
0
0
0
0
0
0
0
0
0
0
0
0
0
0
0
0
0
0
0
0
0
0
0
0
0
0
0
0
0
0
0
0
0
0
0
0
0
0
0
0
0
0
0
0
0
0
0
0
0
0
0
0
0
0
0
0
0
0
0
0
0
0
0
0
0
0
0
0
0
0
0
0
0
0
0
0
0
0
0
0
0
0
-4.94066e-324
2.96439e-323
-4.94066e-324
2.96439e-323
-4.94066e-324
2.96439e-323
-4.94066e-324
2.96439e-323
-4.94066e-324
2.96439e-323
-4.94066e-324
2.96439e-323
-4.94066e-324
2.96439e-323
-4.94066e-324
2.96439e-323
-4.94066e-324
2.96439e-323
-4.94066e-324
2.96439e-323
-4.94066e-324
2.96439e-323
-4.94066e-324
2.96439e-323
-4.94066e-324
2.96439e-323
-4.94066e-324
2.96439e-323
-4.94066e-324
2.96439e-323
-4.94066e-324
2.96439e-323
-4.94066e-324
2.96439e-323
-4.94066e-324
2.96439e-323
-4.94066e-324
2.96439e-323
-4.94066e-324
2.96439e-323
-4.94066e-324
2.96439e-323
-4.94066e-324
2.96439e-323
-4.94066e-324
2.96439e-323
-4.94066e-324
2.96439e-323
-4.94066e-324
2.96439e-323
-4.94066e-324
2.96439e-323
-4.94066e-324
2.96439e-323
-4.94066e-324
2.96439e-323
-4.94066e-324
2.96439e-323
-4.94066e-324
2.96439e-323
-4.94066e-324
2.96439e-323
-4.94066e-324
2.96439e-323
-4.94066e-324
2.96439e-323
-4.94066e-324
2.96439e-323
-4.94066e-324
2.96439e-323
-4.94066e-324
2.96439e-323
-4.94066e-324
2.96439e-323
-4.94066e-324
2.96439e-323
-2.2727e-322
3.49798e-321
-3.99798e-320
5.76476e-319
-6.62206e-318
9.5325e-317
-1.09847e-315
1.57175e-314
-1.83105e-313
2.57578e-312
-3.07659e-311
4.18763e-310
-5.20556e-309
6.77363e-308
-8.81822e-307
1.09664e-305
-1.48747e-304
1.78449e-303
-2.4939e-302
2.92146e-301
-4.15794e-300
4.80877e-299
-6.9027e-298
7.94439e-297
-1.14339e-295
1.31419e-294
-1.89317e-293
2.1742e-292
-3.13398e-291
3.59944e-290
-5.18197e-289
5.97171e-288
-8.54303e-287
9.95519e-286
-1.40001e-284
1.67261e-283
-2.27631e-282
2.82971e-281
-3.68236e-280
4.79324e-279
-5.96183e-278
8.08542e-277
-9.70096e-276
1.35566e-274
-1.58811e-273
2.26032e-272
-2.6139e-271
3.75265e-270
-4.31796e-269
6.2166e-268
-7.14216e-267
1.02939e-265
-1.18156e-264
1.70406e-263
-1.95604e-262
2.81835e-261
-3.2422e-260
4.65518e-259
-5.38396e-258
7.67176e-257
-8.96983e-256
1.25989e-254
-1.49981e-253
2.06371e-252
-2.51021e-251
3.38235e-250
-4.1918e-249
5.55804e-248
-6.98181e-247
9.14676e-246
-1.16243e-244
1.50432e-243
-1.93704e-242
2.47291e-241
-3.22568e-240
4.07284e-239
-5.35537e-238
6.73243e-237
-8.86002e-236
1.11605e-234
-1.46335e-233
1.85105e-232
-2.41795e-231
3.06732e-230
-3.99874e-229
5.07998e-228
-6.614e-227
8.41371e-226
-1.09401e-224
1.39305e-223
-1.81071e-222
2.30489e-221
-2.99782e-220
3.81557e-219
-4.95551e-218
6.33219e-217
-8.16752e-216
1.0537e-214
-1.34378e-213
1.7538e-212
-2.21385e-211
2.91121e-210
-3.65985e-209
4.81615e-208
-6.06711e-207
7.95465e-206
-1.00623e-204
1.31446e-203
-1.66724e-202
2.17403e-201
-2.76102e-200
3.59598e-199
-4.5731e-198
5.94745e-197
-7.57271e-196
9.84216e-195
-1.25316e-193
1.62925e-192
-2.07468e-191
2.6932e-190
-3.44279e-189
4.43943e-188
-5.72823e-187
7.30435e-186
-9.53559e-185
1.20282e-183
-1.58418e-182
1.98592e-181
-2.62492e-180
3.28635e-179
-4.34247e-178
5.44354e-177
-7.18103e-176
9.01709e-175
-1.18767e-173
1.49338e-172
-1.96465e-171
2.47275e-170
-3.25072e-169
4.09322e-168
-5.3802e-167
6.77441e-166
-8.90388e-165
1.12182e-163
-1.47175e-162
1.86138e-161
-2.42656e-160
3.09685e-159
-3.99169e-158
5.15879e-157
-6.56628e-156
8.58218e-155
-1.08253e-153
1.42401e-152
-1.78922e-151
2.35792e-150
-2.96186e-149
3.90033e-148
-4.9064e-147
6.44862e-146
-8.13074e-145
1.06584e-143
-3.83374e-143
-3.93714e-142
6.88503e-141
-8.90769e-141
-2.94829e-139
4.30252e-138
6.15036e-138
-2.22682e-136
2.60907e-136
1.0213e-134
-6.80812e-134
-4.04267e-133
6.38152e-132
1.31431e-131
-3.9039e-130
-4.23541e-130
1.95208e-128
1.39972e-128
-9.70457e-127
-5.20971e-127
4.82096e-125
2.58659e-125
-2.55027e-123
-2.02899e-123
1.2464e-121
1.29558e-121
-5.83256e-120
-1.08044e-119
2.02378e-118
6.795e-118
-6.03339e-117
-5.20153e-116
1.06057e-115
2.76332e-114
1.9741e-115
-1.53506e-112
-2.25938e-112
3.95234e-111
2.1743e-110
-5.30999e-110
-1.39627e-108
-8.73842e-109
5.1438e-107
1.57779e-106
-7.01653e-106
-1.3315e-104
-9.11261e-105
4.0724e-103
1.95918e-102
-2.73939e-102
-1.12665e-100
-1.42327e-100
1.74636e-99
2.31469e-98
1.71784e-98
-5.17e-97
-3.49606e-96
6.3258e-98
1.23497e-94
5.35835e-94
-3.78138e-94
-2.45773e-92
-9.68836e-92
6.52431e-92
4.12739e-90
1.74525e-89
-6.17102e-90
-6.08428e-88
-3.50525e-87
-1.13708e-87
7.40117e-86
6.90444e-85
6.33638e-85
-7.15428e-84
-1.15839e-82
-2.53982e-82
3.68786e-82
1.15725e-80
6.24102e-80
3.43636e-80
-8.40092e-79
-1.11095e-77
-2.29753e-77
2.66205e-77
8.30735e-76
7.28339e-75
8.86436e-75
-3.23119e-74
-5.90495e-73
-3.90452e-72
-3.83857e-72
2.1671e-71
3.33302e-70
1.845e-69
1.65175e-69
-1.08844e-68
-1.51016e-67
-1.45458e-66
-1.29382e-65
-1.11253e-64
-9.33805e-64
-7.67791e-63
-6.17477e-62
-2.45043e-61
-2.03579e-61
1.18762e-60
1.43621e-59
1.1835e-58
8.93086e-58
6.50178e-57
4.62674e-56
3.23019e-55
2.21513e-54
1.49275e-53
9.88777e-53
6.43889e-52
4.12283e-51
2.59606e-50
1.60779e-49
9.7949e-49
5.87062e-48
3.46207e-47
2.00914e-46
1.14752e-45
6.45107e-45
3.57008e-44
1.94511e-43
1.04346e-42
5.51209e-42
2.86755e-41
1.46926e-40
7.41516e-40
3.68651e-39
1.80559e-38
8.71303e-38
4.14285e-37
1.94108e-36
8.96264e-36
4.07854e-35
1.82929e-34
8.08717e-34
3.52432e-33
1.51407e-32
6.41259e-32
2.67771e-31
1.10245e-30
4.4755e-30
1.79157e-29
7.07226e-29
2.75316e-28
1.057e-27
4.00223e-27
1.49463e-26
5.50532e-26
2.00016e-25
7.16796e-25
2.53388e-24
8.83586e-24
3.03945e-23
1.03142e-22
3.45283e-22
1.14032e-21
3.71532e-21
1.19424e-20
3.78716e-20
1.18487e-19
3.65734e-19
1.11378e-18
3.34637e-18
9.91953e-18
2.90101e-17
8.37041e-17
2.38277e-16
6.69191e-16
1.85416e-15
5.06835e-15
1.36679e-14
3.63619e-14
9.5431e-14
2.47071e-13
6.31e-13
1.58965e-12
3.95025e-12
9.6824e-12
2.34077e-11
5.58129e-11
1.31247e-10
3.04373e-10
6.96081e-10
1.56973e-09
3.49043e-09
7.65229e-09
1.654e-08
3.52435e-08
7.40268e-08
1.53261e-07
3.1273e-07
6.28874e-07
1.24616e-06
2.43306e-06
4.68015e-06
8.86835e-06
1.65521e-05
3.04252e-05
5.5072e-05
9.81483e-05
0.000172198
0.000297371
0.000505391
0.00084516
0.00139046
0.0022501
0.00358087
0.0056031
0.00861845
0.0130285
0.0193518
0.0282364
0.0404622
0.0569286
0.0786215
0.106553
0.141676
0.184763
0.236278
0.296226
0.364027
0.438427
0.517472
0.598574
0.678679
0.754533
0.823015
0.881498
0.928165
0.962222
0.984013
0.995231
0.99919
0.999941
0.999999
1
1
1
1
1
1
1
1
1
1
1
1
1
1
1
1
1
1
1
1
1
1
1
1
1
1
1
1
1
1
1
1
1
1
1
1
1
1
1
1
1
1
1
1
1
1
1
1
1
1
1
1
1
1
1
1
0.999999
0.999999
0.999998
0.999995
0.999991
0.999983
0.99997
0.999945
0.999902
0.999828
0.999702
0.999494
0.999154
0.998608
0.997747
0.996415
0.994391
0.991373
0.98696
0.980632
0.971742
0.959508
0.943033
0.921329
0.893385
0.85825
0.815148
0.763619
0.703659
0.635848
0.561441
0.482394
0.401294
0.321196
0.245355
0.17689
0.118426
0.0717784
0.0377409
0.0159659
0.00476048
0.000808101
5.83332e-05
1.29054e-06
6.42833e-09
5.57202e-12
7.01252e-16
5.94328e-20
5.13016e-24
4.47689e-28
3.92144e-32
3.43131e-36
2.99237e-40
2.59945e-44
2.25054e-48
1.94384e-52
1.67672e-56
1.44569e-60
1.24674e-64
1.07574e-68
9.28766e-73
8.02317e-77
6.93358e-81
5.99328e-85
5.18085e-89
4.47838e-93
3.8708e-97
3.34528e-101
2.89081e-105
2.49791e-109
2.15831e-113
1.86485e-117
1.61129e-121
1.39222e-125
1.20295e-129
1.03942e-133
8.98127e-138
7.76041e-142
6.70549e-146
5.79393e-150
5.00626e-154
4.32563e-158
3.7375e-162
3.22932e-166
2.79021e-170
2.4108e-174
2.08297e-178
1.79971e-182
1.55496e-186
1.34349e-190
1.16077e-194
1.0029e-198
8.66497e-203
7.4864e-207
6.4681e-211
5.58827e-215
4.8281e-219
4.17131e-223
3.60385e-227
3.11357e-231
2.68997e-235
2.32399e-239
2.00779e-243
1.73461e-247
1.49858e-251
1.29467e-255
1.11849e-259
9.66285e-264
8.34786e-268
7.21179e-272
6.23029e-276
5.38234e-280
4.64977e-284
4.01689e-288
3.47013e-292
2.99777e-296
2.5897e-300
2.23717e-304
1.93261e-308
1.66951e-312
1.44221e-316
1.24554e-320
0
0
0
0
0
0
0
0
0
0
0
0
0
0
0
0
0
0
0
0
0
0
0
0
0
0
0
0
0
0
0
0
0
0
0
0
0
0
0
0
0
0
0
0
0
0
0
0
0
0
0
0
0
0
0
0
0
0
0
0
0
0
0
0
0
0
0
0
0
0
0
0
0
0
0
0
0
0
0
0
0
0
0
0
0
0
0
0
0
0
0
0
0
0
0
0
0
0
0
0
0
0
0
0
0
0
0
0
0
0
0
0
0
0
0
0
0
0
0
0
0
0
0
0
0
0
0
0
0
0
0
0
0
0
0
0
0
0
0
0
0
0
0
0
0
0
0
0
0
0
0
0
0
0
0
0
0
0
0
0
0
0
0
0
0
0
0
0
0
0
)
;

boundaryField
{
    sides
    {
        type            zeroGradient;
    }
    empty
    {
        type            empty;
    }
}


// ************************************************************************* //
