/*--------------------------------*- C++ -*----------------------------------*\
| =========                 |                                                 |
| \\      /  F ield         | OpenFOAM: The Open Source CFD Toolbox           |
|  \\    /   O peration     | Version:  2312                                  |
|   \\  /    A nd           | Website:  www.openfoam.com                      |
|    \\/     M anipulation  |                                                 |
\*---------------------------------------------------------------------------*/
FoamFile
{
    version     2.0;
    format      ascii;
    arch        "LSB;label=32;scalar=64";
    class       volScalarField;
    location    "3.6";
    object      T;
}
// * * * * * * * * * * * * * * * * * * * * * * * * * * * * * * * * * * * * * //

dimensions      [0 0 0 1 0 0 0];

internalField   nonuniform List<scalar> 
1000
(
3.19234e-87
5.3539e-87
1.12323e-86
2.48761e-86
5.56527e-86
1.24618e-85
2.78787e-85
6.22877e-85
1.38976e-84
3.09653e-84
6.88985e-84
1.53088e-83
3.3968e-83
7.52649e-83
1.66537e-82
3.67978e-82
8.11944e-82
1.78905e-81
3.9365e-81
8.64945e-81
1.89782e-80
4.15827e-80
9.09824e-80
1.98788e-79
4.33718e-79
9.44955e-79
2.05589e-78
4.46654e-78
9.69007e-78
2.09925e-77
4.54134e-77
9.81032e-77
2.11623e-76
4.55849e-76
9.80522e-76
2.10606e-75
4.51711e-75
9.67446e-75
2.06903e-74
4.41857e-74
9.42256e-74
2.00645e-73
4.26638e-73
9.05861e-73
1.92058e-72
4.06605e-72
8.59571e-72
1.8145e-71
3.82472e-71
8.0502e-71
1.69192e-70
3.55071e-70
7.44071e-70
1.55695e-69
3.2531e-69
6.78705e-69
1.41392e-68
2.9412e-68
6.10919e-68
1.26707e-67
2.62405e-67
5.42626e-67
1.12042e-66
2.31003e-66
4.75562e-66
9.77569e-66
2.0065e-65
4.11226e-65
8.41535e-65
1.71954e-64
3.50832e-64
7.14715e-64
1.45383e-63
2.95283e-63
5.98835e-63
1.21261e-62
2.45174e-62
4.94961e-62
9.97719e-62
2.0081e-61
4.03554e-61
8.09758e-61
1.62236e-60
3.24545e-60
6.48243e-60
1.29281e-59
2.57435e-59
5.11837e-59
1.01608e-58
2.01398e-58
3.98578e-58
7.87592e-58
1.55388e-57
3.06098e-57
6.02047e-57
1.1823e-56
2.31819e-56
4.5383e-56
8.87079e-56
1.73122e-55
3.37338e-55
6.56295e-55
1.27483e-54
2.47243e-54
4.78755e-54
9.25594e-54
1.78667e-53
3.44336e-53
6.62575e-53
1.27292e-52
2.44164e-52
4.67597e-52
8.94075e-52
1.70681e-51
3.25318e-51
6.19066e-51
1.17618e-50
2.23109e-50
4.22539e-50
7.98952e-50
1.50827e-49
2.84275e-49
5.34936e-49
1.005e-48
1.88508e-48
3.53016e-48
6.6002e-48
1.23202e-47
2.29601e-47
4.27195e-47
7.9355e-47
1.47169e-46
2.72491e-46
5.03708e-46
9.29604e-46
1.7128e-45
3.1507e-45
5.78622e-45
1.06089e-44
1.94193e-44
3.54881e-44
6.47466e-44
1.17933e-43
2.14456e-43
3.89335e-43
7.0565e-43
1.27684e-42
2.30656e-42
4.15978e-42
7.48954e-42
1.34622e-41
2.41577e-41
4.32782e-41
7.74029e-41
1.38204e-40
2.46351e-40
4.38391e-40
7.78824e-40
1.3813e-39
2.44571e-39
4.32306e-39
7.6286e-39
1.34389e-38
2.36348e-38
4.14956e-38
7.27306e-38
1.27261e-37
2.22298e-37
3.87648e-37
6.74839e-37
1.17279e-36
2.03471e-36
3.52405e-36
6.09309e-36
1.05169e-35
1.81216e-35
3.11715e-35
5.3527e-35
9.17573e-35
1.57022e-34
2.68244e-34
4.57458e-34
7.78791e-34
1.32355e-33
2.24545e-33
3.80291e-33
6.42945e-33
1.08512e-32
1.8282e-32
3.07477e-32
5.16231e-32
8.65203e-32
1.44754e-31
2.4176e-31
4.03067e-31
6.70823e-31
1.11449e-30
1.84833e-30
3.05998e-30
5.05699e-30
8.34256e-30
1.37385e-29
2.25846e-29
3.70609e-29
6.07085e-29
9.92688e-29
1.62033e-28
2.64012e-28
4.29409e-28
6.97179e-28
1.12991e-27
1.82795e-27
2.95197e-27
4.75861e-27
7.65723e-27
1.22994e-26
1.97204e-26
3.15623e-26
5.04242e-26
8.04133e-26
1.28007e-25
2.03402e-25
3.22621e-25
5.10793e-25
8.07256e-25
1.27347e-24
2.00531e-24
3.15198e-24
4.94534e-24
7.74496e-24
1.21074e-23
1.88926e-23
2.94265e-23
4.57502e-23
7.0999e-23
1.09981e-22
1.70054e-22
2.62458e-22
4.04329e-22
6.21745e-22
9.54313e-22
1.46208e-21
2.23588e-21
3.41292e-21
5.19998e-21
7.90815e-21
1.20045e-20
1.8189e-20
2.75087e-20
4.15265e-20
6.25711e-20
9.41056e-20
1.4127e-19
2.11677e-19
3.16584e-19
4.72602e-19
7.0419e-19
1.04731e-18
1.55469e-18
2.30358e-18
3.40681e-18
5.02896e-18
7.40957e-18
1.08966e-17
1.59947e-17
2.34338e-17
3.42681e-17
5.00173e-17
7.2867e-17
1.05955e-16
1.53777e-16
2.22762e-16
3.22084e-16
4.64808e-16
6.69507e-16
9.62527e-16
1.38117e-15
1.97813e-15
2.82773e-15
4.03454e-15
5.74545e-15
8.16631e-15
1.15851e-14
1.64038e-14
2.31825e-14
3.26999e-14
4.60364e-14
6.46882e-14
9.07229e-14
1.26992e-13
1.7742e-13
2.47398e-13
3.44315e-13
4.78279e-13
6.63087e-13
9.17539e-13
1.26719e-12
1.74672e-12
2.40307e-12
3.29969e-12
4.5221e-12
6.18542e-12
8.4442e-12
1.15056e-11
1.56465e-11
2.12367e-11
2.87683e-11
3.88955e-11
5.2486e-11
7.06877e-11
9.50172e-11
1.27473e-10
1.70682e-10
2.28094e-10
3.04225e-10
4.04978e-10
5.3805e-10
7.13458e-10
9.44207e-10
1.24715e-09
1.64409e-09
2.16313e-09
2.84049e-09
3.72268e-09
4.86933e-09
6.35675e-09
8.28231e-09
1.07701e-08
1.39777e-08
1.81053e-08
2.34058e-08
3.01989e-08
3.88874e-08
4.99776e-08
6.41049e-08
8.20647e-08
1.0485e-07
1.337e-07
1.70154e-07
2.16123e-07
2.73973e-07
3.46627e-07
4.37689e-07
5.5159e-07
6.93768e-07
8.70884e-07
1.09107e-06
1.36425e-06
1.70249e-06
2.12041e-06
2.63575e-06
3.2699e-06
4.04868e-06
5.00312e-06
6.17043e-06
7.59517e-06
9.33057e-06
1.144e-05
1.39989e-05
1.70966e-05
2.08388e-05
2.53505e-05
3.07786e-05
3.72958e-05
4.51047e-05
5.44419e-05
6.55836e-05
7.88512e-05
9.46176e-05
0.000113315
0.000135442
0.000161575
0.000192374
0.000228599
0.000271115
0.000320914
0.000379122
0.000447018
0.000526051
0.000617856
0.000724278
0.000847387
0.000989505
0.00115323
0.00134144
0.00155737
0.00180458
0.00208701
0.00240901
0.00277535
0.00319128
0.00366254
0.00419535
0.00479652
0.0054734
0.00623393
0.00708667
0.00804081
0.00910618
0.0102933
0.0116132
0.0130778
0.0146995
0.0164915
0.0184674
0.0206416
0.023029
0.025645
0.0285055
0.0316267
0.0350255
0.0387186
0.0427232
0.0470564
0.0517354
0.0567771
0.0621984
0.0680156
0.0742444
0.0809001
0.0879969
0.0955483
0.103566
0.112062
0.121046
0.130524
0.140504
0.150991
0.161986
0.17349
0.185501
0.198016
0.211028
0.224529
0.238506
0.252948
0.267837
0.283155
0.298883
0.314995
0.331468
0.348274
0.365383
0.382765
0.400387
0.418213
0.436209
0.454339
0.472564
0.490847
0.509149
0.527431
0.545656
0.563784
0.58178
0.599605
0.617225
0.634605
0.651712
0.668514
0.684984
0.701092
0.716814
0.732126
0.747007
0.761439
0.775406
0.788893
0.801889
0.814385
0.826375
0.837853
0.848817
0.859267
0.869205
0.878633
0.887559
0.895987
0.903926
0.911385
0.918376
0.924908
0.930995
0.936648
0.941881
0.946707
0.951139
0.95519
0.958872
0.962199
0.965182
0.967832
0.97016
0.972175
0.973885
0.975299
0.976422
0.97726
0.977816
0.978094
0.978094
0.977816
0.97726
0.976422
0.975299
0.973885
0.972175
0.97016
0.967832
0.965182
0.962199
0.958872
0.95519
0.951139
0.946707
0.941881
0.936648
0.930995
0.924908
0.918376
0.911385
0.903926
0.895987
0.887559
0.878633
0.869205
0.859267
0.848817
0.837853
0.826375
0.814385
0.801889
0.788893
0.775406
0.761439
0.747007
0.732126
0.716814
0.701092
0.684984
0.668514
0.651712
0.634605
0.617225
0.599605
0.58178
0.563784
0.545656
0.527431
0.509149
0.490847
0.472564
0.454339
0.436209
0.418213
0.400387
0.382765
0.365383
0.348274
0.331468
0.314995
0.298883
0.283155
0.267837
0.252948
0.238506
0.224529
0.211028
0.198016
0.185501
0.17349
0.161986
0.150991
0.140504
0.130524
0.121046
0.112062
0.103566
0.0955483
0.0879969
0.0809001
0.0742444
0.0680156
0.0621984
0.0567771
0.0517354
0.0470564
0.0427232
0.0387186
0.0350255
0.0316267
0.0285055
0.025645
0.023029
0.0206416
0.0184674
0.0164915
0.0146995
0.0130778
0.0116132
0.0102933
0.00910618
0.00804081
0.00708667
0.00623393
0.0054734
0.00479652
0.00419535
0.00366254
0.00319128
0.00277535
0.00240901
0.00208701
0.00180458
0.00155737
0.00134144
0.00115323
0.000989505
0.000847387
0.000724278
0.000617856
0.000526051
0.000447018
0.000379122
0.000320914
0.000271115
0.000228599
0.000192374
0.000161575
0.000135442
0.000113315
9.46176e-05
7.88512e-05
6.55836e-05
5.44419e-05
4.51047e-05
3.72958e-05
3.07786e-05
2.53505e-05
2.08388e-05
1.70966e-05
1.39989e-05
1.144e-05
9.33057e-06
7.59517e-06
6.17043e-06
5.00312e-06
4.04868e-06
3.2699e-06
2.63575e-06
2.12041e-06
1.70249e-06
1.36425e-06
1.09107e-06
8.70884e-07
6.93768e-07
5.5159e-07
4.37689e-07
3.46627e-07
2.73973e-07
2.16123e-07
1.70154e-07
1.337e-07
1.0485e-07
8.20647e-08
6.41049e-08
4.99776e-08
3.88874e-08
3.01989e-08
2.34058e-08
1.81053e-08
1.39777e-08
1.07701e-08
8.28231e-09
6.35675e-09
4.86933e-09
3.72268e-09
2.84049e-09
2.16313e-09
1.64409e-09
1.24715e-09
9.44207e-10
7.13458e-10
5.3805e-10
4.04978e-10
3.04225e-10
2.28094e-10
1.70682e-10
1.27473e-10
9.50172e-11
7.06877e-11
5.2486e-11
3.88955e-11
2.87683e-11
2.12367e-11
1.56465e-11
1.15056e-11
8.4442e-12
6.18542e-12
4.5221e-12
3.29969e-12
2.40307e-12
1.74672e-12
1.26719e-12
9.17539e-13
6.63087e-13
4.78279e-13
3.44315e-13
2.47398e-13
1.7742e-13
1.26992e-13
9.07229e-14
6.46882e-14
4.60364e-14
3.26999e-14
2.31825e-14
1.64038e-14
1.15851e-14
8.16631e-15
5.74545e-15
4.03454e-15
2.82773e-15
1.97813e-15
1.38117e-15
9.62527e-16
6.69507e-16
4.64808e-16
3.22084e-16
2.22762e-16
1.53777e-16
1.05955e-16
7.2867e-17
5.00173e-17
3.42681e-17
2.34338e-17
1.59947e-17
1.08966e-17
7.40957e-18
5.02896e-18
3.40681e-18
2.30358e-18
1.55469e-18
1.04731e-18
7.0419e-19
4.72602e-19
3.16584e-19
2.11677e-19
1.4127e-19
9.41056e-20
6.25711e-20
4.15265e-20
2.75087e-20
1.8189e-20
1.20045e-20
7.90815e-21
5.19998e-21
3.41292e-21
2.23588e-21
1.46208e-21
9.54313e-22
6.21745e-22
4.04329e-22
2.62458e-22
1.70054e-22
1.09981e-22
7.0999e-23
4.57502e-23
2.94265e-23
1.88926e-23
1.21074e-23
7.74496e-24
4.94534e-24
3.15198e-24
2.00531e-24
1.27347e-24
8.07256e-25
5.10793e-25
3.22621e-25
2.03402e-25
1.28007e-25
8.04133e-26
5.04242e-26
3.15623e-26
1.97204e-26
1.22994e-26
7.65723e-27
4.75861e-27
2.95197e-27
1.82795e-27
1.12991e-27
6.97179e-28
4.29409e-28
2.64012e-28
1.62033e-28
9.92688e-29
6.07085e-29
3.70609e-29
2.25846e-29
1.37385e-29
8.34256e-30
5.05699e-30
3.05998e-30
1.84833e-30
1.11449e-30
6.70823e-31
4.03067e-31
2.4176e-31
1.44754e-31
8.65203e-32
5.16231e-32
3.07477e-32
1.8282e-32
1.08512e-32
6.42945e-33
3.80291e-33
2.24545e-33
1.32355e-33
7.78791e-34
4.57458e-34
2.68244e-34
1.57022e-34
9.17573e-35
5.3527e-35
3.11715e-35
1.81216e-35
1.05169e-35
6.09309e-36
3.52405e-36
2.03471e-36
1.17279e-36
6.74839e-37
3.87648e-37
2.22298e-37
1.27261e-37
7.27306e-38
4.14956e-38
2.36348e-38
1.34389e-38
7.6286e-39
4.32306e-39
2.44571e-39
1.3813e-39
7.78824e-40
4.38391e-40
2.46351e-40
1.38204e-40
7.74029e-41
4.32782e-41
2.41577e-41
1.34622e-41
7.48954e-42
4.15978e-42
2.30656e-42
1.27684e-42
7.0565e-43
3.89335e-43
2.14456e-43
1.17933e-43
6.47466e-44
3.54881e-44
1.94193e-44
1.06089e-44
5.78622e-45
3.1507e-45
1.7128e-45
9.29604e-46
5.03708e-46
2.72491e-46
1.47169e-46
7.9355e-47
4.27195e-47
2.29601e-47
1.23202e-47
6.6002e-48
3.53016e-48
1.88508e-48
1.005e-48
5.34936e-49
2.84275e-49
1.50827e-49
7.98952e-50
4.22539e-50
2.23109e-50
1.17618e-50
6.19066e-51
3.25318e-51
1.70681e-51
8.94075e-52
4.67597e-52
2.44164e-52
1.27292e-52
6.62575e-53
3.44336e-53
1.78667e-53
9.25594e-54
4.78755e-54
2.47243e-54
1.27483e-54
6.56295e-55
3.37338e-55
1.73122e-55
8.87079e-56
4.5383e-56
2.31819e-56
1.1823e-56
6.02047e-57
3.06098e-57
1.55388e-57
7.87592e-58
3.98578e-58
2.01398e-58
1.01608e-58
5.11837e-59
2.57435e-59
1.29281e-59
6.48243e-60
3.24545e-60
1.62236e-60
8.09758e-61
4.03554e-61
2.0081e-61
9.97719e-62
4.94961e-62
2.45174e-62
1.21261e-62
5.98835e-63
2.95283e-63
1.45383e-63
7.14715e-64
3.50832e-64
1.71954e-64
8.41535e-65
4.11226e-65
2.0065e-65
9.77569e-66
4.75562e-66
2.31003e-66
1.12042e-66
5.42626e-67
2.62405e-67
1.26707e-67
6.10919e-68
2.9412e-68
1.41392e-68
6.78705e-69
3.2531e-69
1.55695e-69
7.44071e-70
3.55071e-70
1.69192e-70
8.0502e-71
3.82472e-71
1.8145e-71
8.59571e-72
4.06605e-72
1.92058e-72
9.05861e-73
4.26638e-73
2.00645e-73
9.42256e-74
4.41857e-74
2.06903e-74
9.67446e-75
4.51711e-75
2.10606e-75
9.80522e-76
4.55849e-76
2.11623e-76
9.81032e-77
4.54134e-77
2.09925e-77
9.69007e-78
4.46654e-78
2.05589e-78
9.44955e-79
4.33718e-79
1.98788e-79
9.09824e-80
4.15827e-80
1.89782e-80
8.64945e-81
3.9365e-81
1.78905e-81
8.11944e-82
3.67978e-82
1.66537e-82
7.52649e-83
3.3968e-83
1.53088e-83
6.88985e-84
3.09653e-84
1.38976e-84
6.22877e-85
2.78787e-85
1.24618e-85
5.56527e-86
2.48761e-86
1.12323e-86
5.3539e-87
3.19234e-87
)
;

boundaryField
{
    sides
    {
        type            zeroGradient;
    }
    empty
    {
        type            empty;
    }
}


// ************************************************************************* //
