/*--------------------------------*- C++ -*----------------------------------*\
| =========                 |                                                 |
| \\      /  F ield         | OpenFOAM: The Open Source CFD Toolbox           |
|  \\    /   O peration     | Version:  2312                                  |
|   \\  /    A nd           | Website:  www.openfoam.com                      |
|    \\/     M anipulation  |                                                 |
\*---------------------------------------------------------------------------*/
FoamFile
{
    version     2.0;
    format      ascii;
    arch        "LSB;label=32;scalar=64";
    class       volScalarField;
    location    "4.2";
    object      T;
}
// * * * * * * * * * * * * * * * * * * * * * * * * * * * * * * * * * * * * * //

dimensions      [0 0 0 1 0 0 0];

internalField   nonuniform List<scalar> 
1000
(
0.0447554
0.0160578
0.0308841
5.5967e-05
0.0252581
-0.0108107
0.024467
-0.0187267
0.0263344
-0.0248226
0.0292587
-0.0294447
0.0319829
-0.032406
0.033457
-0.0332349
0.032817
-0.0314227
0.029468
-0.0266715
0.023233
-0.0191199
0.0145039
-0.00949964
0.00431621
0.000841007
-0.0057273
0.0101029
-0.0137313
0.0164071
-0.0179679
0.0183148
-0.0174244
0.0153586
-0.0122672
0.00838353
-0.00401144
-0.00049551
0.00476166
-0.008422
0.0111569
-0.0127256
0.0129942
-0.0119549
0.00973312
-0.0065799
0.00285
0.00103397
-0.00462783
0.0075177
-0.00937127
0.00998182
-0.00929827
0.00743628
-0.0046673
0.00138547
0.00194427
-0.00485074
0.00692469
-0.00788064
0.00760215
-0.0061626
0.00381653
-0.000961472
-0.00192501
0.00436373
-0.00595495
0.00644795
-0.00578641
0.00411996
-0.00177856
-0.000787141
0.00308966
-0.0046973
0.00531788
-0.00485659
0.00343529
-0.00136803
-0.000903523
0.0029026
-0.00421866
0.00459601
-0.00398979
0.00257593
-0.000711753
-0.00114524
0.00254232
-0.00313629
0.002773
-0.00152186
-0.00034402
0.00241828
-0.00426574
0.00553486
-0.00604965
0.00585651
-0.00521319
0.00452142
-0.00422061
0.00467071
-0.00605608
0.00833731
-0.0112647
0.0144503
-0.0174778
0.0200189
-0.0219212
0.0232415
-0.0242133
0.0251586
-0.0263695
0.0279974
-0.0299847
0.0320611
-0.0338082
0.0347715
-0.0345875
0.033083
-0.0303174
0.0265546
-0.0221745
0.0175571
-0.0129778
0.00855222
-0.00424825
-3.97072e-05
0.0043838
-0.00872477
0.012823
-0.0162816
0.0186379
-0.019495
0.0186473
-0.0161569
0.0123531
-0.00775477
0.00294439
0.00156193
-0.00540439
0.00840234
-0.0105115
0.011744
-0.0120931
0.0115031
-0.00989917
0.00726738
-0.00374566
-0.000320774
0.00439544
-0.00784587
0.0100927
-0.0107627
0.00979046
-0.00743282
0.0041911
-0.000672338
-0.00255918
0.00508944
-0.00669306
0.00730681
-0.00696999
0.00577323
-0.00384483
0.00137617
0.00134017
-0.00389958
0.00583261
-0.00671218
0.00628857
-0.00459775
0.00199086
0.000939407
-0.00351768
0.00517588
-0.00560609
0.0048238
-0.00312698
0.000977765
0.00113927
-0.00282947
0.00384185
-0.00406925
0.00352309
-0.00231387
0.000649137
0.00116457
-0.0027449
0.00370357
-0.00375692
0.00283923
-0.00116377
-0.000810724
0.00251239
-0.00344433
0.00335528
-0.00232223
0.000711763
0.000960713
-0.00221197
0.00273883
-0.00248265
0.00160321
-0.000393409
-0.000818538
0.00174443
-0.00218022
0.00203075
-0.00132861
0.000245142
0.000925141
-0.00182723
0.00215434
-0.00176895
0.000780222
0.000471451
-0.00153242
0.00201404
-0.00175263
0.000875707
0.000257517
-0.00121231
0.00165646
-0.00147975
0.000809497
6.93768e-05
-0.000839475
0.00126219
-0.0012378
0.000810526
-0.00013707
-0.000561512
0.00105604
-0.00117257
0.000855072
-0.000204309
-0.000537225
0.00106806
-0.00115548
0.000750619
-2.63869e-05
-0.000692951
0.00108345
-0.000978427
0.000447303
0.000245731
-0.000778586
0.000927956
-0.000664189
0.000143226
0.000386638
-0.000704826
0.000705184
-0.000419399
-1.58702e-05
0.000420745
-0.00063678
0.000579701
-0.000271342
-0.000160296
0.000523404
-0.000643117
0.000450451
-3.08285e-05
-0.000406058
0.000631435
-0.000524255
0.000144079
0.000298951
-0.000563573
0.000515191
-0.000198191
-0.000198936
0.000459141
-0.000458702
0.000224062
0.000100531
-0.00034319
0.000393878
-0.000247724
-8.13951e-06
0.000244782
-0.000350506
0.00027729
-6.18207e-05
-0.000187225
0.000337295
-0.00030087
9.09382e-05
0.000175487
-0.000339587
0.000298254
-7.45069e-05
-0.000191538
0.000331556
-0.000259972
2.99255e-05
0.000205329
-0.000297377
0.000199161
1.23892e-05
-0.000196908
0.000245509
-0.000143887
-3.18226e-05
0.000172331
-0.000201567
0.000113201
3.48803e-05
-0.000156479
0.000182742
-9.83393e-05
-4.76468e-05
0.000165553
-0.000177558
7.08776e-05
8.6292e-05
-0.000185707
0.000155067
-1.42502e-05
-0.000135085
0.000183887
-9.8441e-05
-5.42946e-05
0.000159605
-0.000143521
2.61526e-05
9.99656e-05
-0.000144322
8.39681e-05
2.79964e-05
-0.000109412
0.00010913
-3.6289e-05
-5.44069e-05
0.000102845
-8.03773e-05
4.3907e-06
7.36761e-05
-0.000100039
5.4265e-05
3.30642e-05
-9.76165e-05
8.78853e-05
-8.28368e-06
-7.92664e-05
0.000103122
-4.25303e-05
-5.22905e-05
0.000101724
-6.54153e-05
-2.31966e-05
8.76543e-05
-7.59385e-05
3.33138e-06
6.56142e-05
-7.55e-05
2.4675e-05
4.00186e-05
-6.68944e-05
3.99887e-05
1.44526e-05
-5.34123e-05
4.96436e-05
-8.49583e-06
-3.81609e-05
5.46262e-05
-2.71724e-05
-2.36235e-05
5.60369e-05
-4.07058e-05
-1.14292e-05
5.47672e-05
-4.88636e-05
-2.29368e-06
5.13768e-05
-5.19556e-05
3.89996e-06
4.61502e-05
-5.07778e-05
7.89891e-06
3.92806e-05
-4.65493e-05
1.07804e-05
3.10976e-05
-4.07886e-05
1.35917e-05
2.22451e-05
-3.50906e-05
1.7001e-05
1.37197e-05
-3.08132e-05
2.10521e-05
6.71588e-06
-2.87399e-05
2.51231e-05
2.29785e-06
-2.88394e-05
2.81428e-05
9.97376e-07
-3.02547e-05
2.90342e-05
2.51187e-06
-3.15989e-05
2.72424e-05
5.68385e-06
-3.1515e-05
2.31159e-05
8.86079e-06
-2.93083e-05
1.79127e-05
1.05627e-05
-2.53535e-05
1.33332e-05
1.01875e-05
-2.10059e-05
1.07179e-05
8.37519e-06
-1.79523e-05
1.02922e-05
6.73661e-06
-1.72514e-05
1.09242e-05
6.9615e-06
-1.85869e-05
1.06699e-05
9.72912e-06
-2.02649e-05
7.92926e-06
1.40967e-05
-2.01205e-05
2.56303e-06
1.78885e-05
-1.68967e-05
-3.82632e-06
1.90106e-05
-1.11881e-05
-8.81971e-06
1.6892e-05
-5.15651e-06
-1.08303e-05
1.29566e-05
-1.01908e-06
-1.02881e-05
9.57298e-06
6.59001e-07
-9.29141e-06
8.11669e-06
1.42969e-06
-9.77274e-06
7.71658e-06
3.55441e-06
-1.16089e-05
5.97325e-06
7.7277e-06
-1.24782e-05
1.30469e-06
1.20147e-05
-9.92832e-06
-5.13968e-06
1.3309e-05
-3.94697e-06
-1.00559e-05
1.02531e-05
2.57339e-06
-1.0879e-05
4.76225e-06
6.31526e-06
-8.23243e-06
2.90389e-07
6.65122e-06
-5.16249e-06
-1.62095e-06
5.93731e-06
-3.68678e-06
-2.66371e-06
6.35062e-06
-2.55771e-06
-5.11035e-06
6.88268e-06
7.53831e-07
-8.18357e-06
4.52526e-06
5.94803e-06
-8.31943e-06
-1.30149e-06
9.11102e-06
-3.70207e-06
-6.81358e-06
7.08078e-06
2.61691e-06
-7.73769e-06
1.67432e-06
5.78093e-06
-4.44508e-06
-2.31078e-06
4.86933e-06
-1.14485e-06
-3.10788e-06
3.26393e-06
1.04016e-07
-3.38217e-06
2.87206e-06
1.63212e-06
-4.71808e-06
1.2207e-06
4.85244e-06
-4.12987e-06
-3.33124e-06
6.15307e-06
7.36491e-07
-6.73711e-06
2.08382e-06
5.83152e-06
-4.31256e-06
-3.82918e-06
5.39899e-06
1.38647e-06
-5.17521e-06
8.00184e-07
3.84383e-06
-2.18889e-06
-1.86658e-06
2.51013e-06
-1.95471e-07
-1.79216e-06
1.83773e-06
3.06684e-07
-2.72506e-06
1.53468e-06
2.74277e-06
-3.29727e-06
-1.98669e-06
4.62305e-06
7.07864e-07
-5.29388e-06
7.65783e-07
5.25236e-06
-2.10858e-06
-4.58512e-06
3.06012e-06
3.48052e-06
-3.46292e-06
-2.17517e-06
3.27313e-06
9.02239e-07
-2.54852e-06
1.4894e-07
1.42144e-06
-8.5726e-07
-6.50922e-08
1.17752e-06
-1.33912e-06
-1.134e-06
2.62813e-06
8.04275e-07
-3.67466e-06
-2.97991e-07
4.39527e-06
-2.64939e-07
-4.75024e-06
7.73587e-07
4.73765e-06
-1.14064e-06
-4.38437e-06
1.31158e-06
3.73641e-06
-1.2685e-06
-2.85059e-06
1.02907e-06
1.78873e-06
-6.41613e-07
-6.14785e-07
1.77067e-07
-6.05509e-07
2.81295e-07
1.80323e-06
-6.49717e-07
-2.90464e-06
8.56593e-07
3.83082e-06
-8.54928e-07
-4.50015e-06
6.33321e-07
4.83482e-06
-2.23726e-07
-4.77182e-06
-2.96135e-07
4.27759e-06
8.07914e-07
-3.36446e-06
-1.16708e-06
2.10496e-06
1.22719e-06
-6.39182e-07
-8.72368e-07
-8.30251e-07
5.34284e-08
2.0602e-06
1.18007e-06
-2.80771e-06
-2.66222e-06
2.88626e-06
4.11857e-06
-2.22778e-06
-5.20761e-06
9.34009e-07
5.59715e-06
7.0363e-07
-5.06535e-06
-2.23572e-06
3.60265e-06
3.14885e-06
-1.47897e-06
-3.0144e-06
-7.62931e-07
1.65958e-06
2.41606e-06
6.96637e-07
-2.8188e-06
-3.41198e-06
1.62064e-06
5.55009e-06
9.87548e-07
-6.17951e-06
-4.19626e-06
4.77539e-06
6.7522e-06
-1.57444e-06
-7.40326e-06
-2.31205e-06
5.49922e-06
5.18465e-06
-1.4952e-06
-5.45131e-06
-2.95786e-06
2.51068e-06
5.55725e-06
2.6138e-06
-4.46514e-06
-7.37619e-06
-4.55702e-07
8.78703e-06
7.03197e-06
-5.16729e-06
-1.14642e-05
-2.33646e-06
1.03708e-05
9.6502e-06
-3.28678e-06
-1.17552e-05
-6.06927e-06
6.12119e-06
1.12743e-05
4.524e-06
-7.40499e-06
-1.26689e-05
-4.40137e-06
1.07405e-05
1.58736e-05
2.27997e-06
-1.65411e-05
-1.76532e-05
2.68765e-06
2.17122e-05
1.6667e-05
-7.53663e-06
-2.42241e-05
-1.55372e-05
9.40337e-06
2.58604e-05
1.77065e-05
-8.79167e-06
-2.99094e-05
-2.37783e-05
8.19843e-06
3.72595e-05
3.17868e-05
-8.28969e-06
-4.55007e-05
-4.04385e-05
6.14327e-06
5.12722e-05
5.11542e-05
3.04474e-06
-5.2411e-05
-6.65879e-05
-2.31318e-05
4.72111e-05
8.68976e-05
5.56247e-05
-3.15085e-05
-0.000106356
-9.94406e-05
-3.25399e-06
0.000111568
0.00014906
6.76532e-05
-8.14137e-05
-0.000188571
-0.000165091
-9.42124e-06
0.000182942
0.000274336
0.000176596
-7.56905e-05
-0.000326795
-0.000391679
-0.000186055
0.000197097
0.000526685
0.000570065
0.000242281
-0.000322416
-0.000819679
-0.000925593
-0.000480645
0.000385079
0.00126527
0.0016496
0.00118663
-9.44203e-05
-0.00172585
-0.0029509
-0.00302656
-0.00156337
0.00122685
0.00447873
0.00686661
0.00701553
0.00401697
-0.00211459
-0.010193
-0.0178942
-0.0220581
-0.0191834
-0.00600989
0.0199253
0.0598713
0.11367
0.17981
0.255685
0.337972
0.423049
0.507395
0.587921
0.662206
0.72861
0.786259
0.834944
0.874988
0.9071
0.93224
0.951485
0.965905
0.97648
0.984062
0.989378
0.993034
0.995512
0.997172
0.998259
0.998942
0.999353
0.9996
0.999763
0.999879
0.999953
0.999978
0.999971
0.999961
0.999975
1.00001
1.00003
1.00002
0.999989
0.999962
0.99997
1.00001
1.00004
1.00004
0.999995
0.999951
0.999948
0.999994
1.00005
1.00007
1.00002
0.999951
0.999911
0.999946
1.00003
1.00011
1.0001
1
0.999891
0.999853
0.99993
1.00008
1.00019
1.00017
1.00001
0.999814
0.999724
0.999826
1.00008
1.00033
1.00039
1.00018
0.999806
0.999476
0.999428
0.999754
1.00032
1.00082
1.00093
1.00048
0.999611
0.998735
0.998355
0.998816
1.00009
1.00172
1.00295
1.00303
1.00157
0.998769
0.995516
0.993134
0.99299
0.995986
1.00211
1.01019
1.01789
1.02206
1.01919
1.00601
0.980067
0.940127
0.886336
0.820197
0.744314
0.66202
0.576946
0.49261
0.412089
0.337796
0.271382
0.213732
0.165057
0.125023
0.0929083
0.0677551
0.0485022
0.0340893
0.0235292
0.0159521
0.0106251
0.00695385
0.00447257
0.00282738
0.00175692
0.00107324
0.000644533
0.000380551
0.000220905
0.000126072
7.07348e-05
3.90139e-05
2.1151e-05
1.12697e-05
5.90038e-06
3.03488e-06
1.53313e-06
7.60407e-07
3.70143e-07
1.76742e-07
8.27372e-08
3.79444e-08
1.70336e-08
7.47678e-09
3.20478e-09
1.33916e-09
5.4434e-10
2.14618e-10
8.17522e-11
2.99156e-11
1.04254e-11
3.41071e-12
1.01973e-12
2.62103e-13
4.7096e-14
-2.49969e-15
-8.26908e-15
-5.52847e-15
-2.77862e-15
-1.20378e-15
-4.674e-16
-1.6394e-16
-5.12499e-17
-1.36052e-17
-2.58696e-18
1.08519e-20
3.41055e-19
2.27534e-19
1.08456e-19
4.32128e-20
1.48957e-20
4.38241e-21
1.01238e-21
1.1654e-22
-4.9084e-23
-4.58756e-23
-2.3439e-23
-9.4041e-24
-3.15105e-24
-8.65994e-25
-1.69683e-25
-3.73075e-27
1.76449e-26
1.13767e-26
4.96665e-27
1.73343e-27
4.87777e-28
9.82484e-29
3.91663e-30
-8.78471e-30
-5.71941e-30
-2.43402e-30
-8.10217e-31
-2.09701e-31
-3.41384e-32
3.02591e-33
5.51316e-33
2.88392e-33
1.07573e-33
3.10327e-34
6.29948e-35
2.90641e-36
-5.05155e-36
-3.1815e-36
-1.26913e-36
-3.81808e-37
-8.18311e-38
-6.05152e-39
5.10891e-39
3.46249e-39
1.39097e-39
4.12501e-40
8.48308e-41
4.57117e-42
-6.07506e-42
-3.75804e-42
-1.42458e-42
-3.93076e-43
-6.9631e-44
1.60892e-45
7.71275e-45
3.93853e-45
1.33118e-45
3.18953e-46
3.86702e-47
-1.05169e-47
-9.20165e-48
-3.77766e-48
-1.08027e-48
-1.99162e-49
-3.38249e-52
1.85822e-50
9.52716e-51
3.11549e-51
6.94461e-52
6.24107e-53
-3.2681e-53
-2.21639e-53
-8.10406e-54
-2.02116e-54
-2.68274e-55
5.01585e-56
4.90182e-56
1.9638e-56
5.25052e-57
8.1647e-58
-6.87866e-59
-1.05847e-58
-4.52473e-59
-1.25543e-59
-2.08089e-60
9.75871e-62
2.27939e-61
1.00347e-61
2.8047e-62
4.66078e-63
-2.03641e-64
-4.94843e-64
-2.15289e-64
-5.88671e-65
-9.27129e-66
6.24896e-67
1.13075e-66
3.28523e-67
)
;

boundaryField
{
    sides
    {
        type            zeroGradient;
    }
    empty
    {
        type            empty;
    }
}


// ************************************************************************* //
