/*--------------------------------*- C++ -*----------------------------------*\
| =========                 |                                                 |
| \\      /  F ield         | OpenFOAM: The Open Source CFD Toolbox           |
|  \\    /   O peration     | Version:  2312                                  |
|   \\  /    A nd           | Website:  www.openfoam.com                      |
|    \\/     M anipulation  |                                                 |
\*---------------------------------------------------------------------------*/
FoamFile
{
    version     2.0;
    format      ascii;
    arch        "LSB;label=32;scalar=64";
    class       volScalarField;
    location    "4.1";
    object      T;
}
// * * * * * * * * * * * * * * * * * * * * * * * * * * * * * * * * * * * * * //

dimensions      [0 0 0 1 0 0 0];

internalField   nonuniform List<scalar> 
1000
(
0
0
0
0
0
0
0
0
0
0
0
0
0
0
0
0
0
0
0
0
0
0
0
0
0
0
0
0
0
0
0
0
0
0
0
0
0
0
0
0
0
0
0
0
0
0
0
0
0
0
0
0
0
0
0
0
0
0
0
0
0
0
0
0
0
0
0
0
0
0
0
0
0
0
0
0
0
0
0
0
0
0
0
0
0
0
0
0
0
0
0
0
0
0
0
0
0
0
0
0
0
0
0
0
0
0
0
0
0
0
0
0
0
0
0
0
0
0
0
0
0
0
0
0
0
0
0
0
0
0
0
0
0
0
0
0
0
0
0
0
0
0
0
0
0
0
0
0
0
0
0
0
0
0
0
0
0
0
0
0
0
0
0
0
0
0
0
0
0
0
0
0
0
0
0
0
0
0
0
0
0
0
0
0
0
0
0
0
0
0
0
0
0
0
0
0
0
0
0
0
0
0
0
0
0
0
0
0
0
0
0
0
0
0
0
0
0
0
0
0
0
0
0
0
0
0
0
0
0
0
0
0
0
0
0
0
0
0
0
0
0
0
0
0
0
0
0
0
0
0
0
0
0
0
0
0
0
0
0
0
0
0
0
0
0
0
0
0
0
0
0
0
0
0
0
0
0
0
0
0
0
0
0
0
0
0
0
0
0
0
0
0
0
0
0
0
0
0
0
0
0
0
0
0
0
0
0
0
0
0
0
0
0
0
0
0
0
0
0
0
0
0
0
0
0
0
0
0
0
0
0
0
0
0
0
0
0
0
0
0
0
0
0
0
0
0
0
0
0
0
0
0
0
0
0
0
0
0
0
0
0
0
0
0
0
0
0
0
0
0
0
0
0
0
0
0
0
0
0
0
0
0
0
0
0
0
0
0
0
0
0
0
0
0
0
0
0
0
0
0
0
0
0
0
4.15667e-148
-2.79036e-132
1.67667e-124
-9.61218e-121
-1.6089e-118
-1.18548e-116
-4.36893e-115
-2.13795e-115
1.03688e-111
7.62756e-110
3.59536e-108
1.3169e-106
4.01785e-105
1.05884e-103
2.46579e-102
5.15539e-101
9.7925e-100
1.70557e-98
2.74427e-97
4.10439e-96
5.73577e-95
7.52293e-94
9.2962e-93
1.08594e-91
1.20275e-90
1.26634e-89
1.27042e-88
1.21695e-87
1.11519e-86
9.79267e-86
8.25267e-85
6.68379e-84
5.20859e-83
3.90989e-82
2.82996e-81
1.9767e-80
1.33341e-79
8.69194e-79
5.47782e-78
3.33872e-77
1.96836e-76
1.12244e-75
6.18898e-75
3.29759e-74
1.69594e-73
8.40406e-73
4.00141e-72
1.82246e-71
7.88249e-71
3.19688e-70
1.18628e-69
3.80519e-69
8.72134e-69
-3.42127e-69
-2.18679e-67
-1.89747e-66
-1.24105e-65
-7.12573e-65
-3.77547e-64
-1.8885e-63
-9.0296e-63
-4.15828e-62
-1.85364e-61
-8.02642e-61
-3.3847e-60
-1.39273e-59
-5.60051e-59
-2.20363e-58
-8.49258e-58
-3.20851e-57
-1.18919e-56
-4.32668e-56
-1.5462e-55
-5.43007e-55
-1.8749e-54
-6.36754e-54
-2.12797e-53
-7.00046e-53
-2.26788e-52
-7.23772e-52
-2.27629e-51
-7.05742e-51
-2.15778e-50
-6.50807e-50
-1.93698e-49
-5.69061e-49
-1.65078e-48
-4.72972e-48
-1.3388e-47
-3.74489e-47
-1.03538e-46
-2.82996e-46
-7.64807e-46
-2.04395e-45
-5.40227e-45
-1.41221e-44
-3.65133e-44
-9.3376e-44
-2.3618e-43
-5.90821e-43
-1.46168e-42
-3.57608e-42
-8.65158e-42
-2.06963e-41
-4.8954e-41
-1.14492e-40
-2.64767e-40
-6.05454e-40
-1.36923e-39
-3.06279e-39
-6.77804e-39
-1.48443e-38
-3.21838e-38
-6.91057e-38
-1.47026e-37
-3.10095e-37
-6.48699e-37
-1.34668e-36
-2.77562e-36
-5.68196e-36
-1.15555e-35
-2.33495e-35
-4.68722e-35
-9.34466e-35
-1.84919e-34
-3.62934e-34
-7.05781e-34
-1.35827e-33
-2.58327e-33
-4.84776e-33
-8.96044e-33
-1.62806e-32
-2.90114e-32
-5.05653e-32
-8.59177e-32
-1.41711e-31
-2.25574e-31
-3.43584e-31
-4.93977e-31
-6.54016e-31
-7.55606e-31
-6.44364e-31
-1.81037e-32
1.65265e-30
5.20127e-30
1.17782e-29
2.26644e-29
3.86218e-29
5.83265e-29
7.51923e-29
7.16887e-29
1.0315e-29
-1.7879e-28
-6.11067e-28
-1.45303e-27
-2.89922e-27
-5.07737e-27
-7.80011e-27
-1.00227e-26
-8.78098e-27
2.72028e-27
3.83095e-26
1.23838e-25
3.04366e-25
6.53527e-25
1.28403e-24
2.35615e-24
4.07761e-24
6.68257e-24
1.03699e-23
1.51715e-23
2.07138e-23
2.58309e-23
2.80033e-23
2.26384e-23
2.30677e-24
-4.37624e-23
-1.29321e-22
-2.68804e-22
-4.71403e-22
-7.29064e-22
-9.95275e-22
-1.15111e-21
-9.55628e-22
2.01008e-23
2.47034e-21
7.42873e-21
1.63078e-20
3.0849e-20
5.28966e-20
8.38731e-20
1.238e-19
1.69687e-19
2.13149e-19
2.37183e-19
2.12282e-19
9.24177e-20
-1.87954e-19
-7.13864e-19
-1.58369e-18
-2.89262e-18
-4.70036e-18
-6.97722e-18
-9.52397e-18
-1.18644e-17
-1.31181e-17
-1.1864e-17
-6.00102e-18
7.3328e-18
3.16988e-17
7.09846e-17
1.28428e-16
2.04629e-16
2.94384e-16
3.82903e-16
4.44012e-16
4.42112e-16
2.95659e-16
-2.64822e-16
-1.79161e-15
-4.35501e-15
-6.65747e-15
-5.2956e-15
6.53638e-15
2.49268e-14
3.03529e-14
2.08121e-16
-6.34092e-14
-9.74959e-14
-3.06786e-14
1.45386e-13
2.76662e-13
1.4333e-13
-3.09585e-13
-7.29035e-13
-5.32967e-13
5.41046e-13
1.85871e-12
1.77998e-12
-6.20671e-13
-4.36735e-12
-5.4193e-12
-7.98047e-13
9.01227e-12
1.54489e-11
8.30696e-12
-1.48343e-11
-3.94328e-11
-3.60873e-11
1.12524e-11
8.61718e-11
1.18613e-10
4.40995e-11
-1.4266e-10
-3.17499e-10
-2.75394e-10
9.70858e-11
6.76087e-10
9.58529e-10
4.72054e-10
-9.05944e-10
-2.48162e-09
-2.60797e-09
-3.86364e-10
4.11334e-09
7.97054e-09
6.95101e-09
-1.3171e-09
-1.50856e-08
-2.47115e-08
-1.89657e-08
8.05967e-09
4.95156e-08
7.63751e-08
5.69444e-08
-2.43438e-08
-1.4977e-07
-2.37745e-07
-1.93764e-07
3.36828e-08
4.08819e-07
7.32366e-07
7.06054e-07
1.61115e-07
-9.2277e-07
-2.14331e-06
-2.56943e-06
-1.58334e-06
1.20302e-06
5.25889e-06
8.56858e-06
8.31398e-06
2.91524e-06
-8.27726e-06
-2.24599e-05
-3.21238e-05
-2.92651e-05
-8.63671e-06
3.16336e-05
8.29103e-05
0.000122781
0.000121357
6.27471e-05
-6.76737e-05
-0.000256862
-0.000452035
-0.000551669
-0.000477442
-0.000162693
0.000433871
0.00126334
0.00214248
0.00273015
0.00266232
0.00171296
-0.00042061
-0.00385094
-0.00836005
-0.0133044
-0.0175422
-0.0192062
-0.0173089
-0.0104127
0.00327522
0.02525
0.0565578
0.0976603
0.148351
0.207743
0.274338
0.34615
0.420891
0.496169
0.569685
0.639405
0.703688
0.761363
0.811747
0.854623
0.890174
0.918897
0.941509
0.958847
0.971791
0.981191
0.987826
0.992372
0.995388
0.997323
0.998518
0.999226
0.999625
0.999836
0.99994
0.999985
0.999999
1
1
1
1
1
1
1
1
1
1
1
1
1
1
1
1
1
1
1
1
1
1
1
1
1
0.999999
0.999999
1
1
1
1
1
0.999999
0.999995
0.999991
0.999992
0.999997
1.00001
1.00002
1.00003
1.00003
1.00001
0.999968
0.999917
0.999877
0.999879
0.999937
1.00007
1.00026
1.00045
1.00055
1.00048
1.00016
0.999565
0.998736
0.997857
0.997271
0.99734
0.998291
1.00043
1.00386
1.00837
1.01331
1.01754
1.0192
1.01729
1.01039
0.996688
0.9747
0.94338
0.902265
0.851565
0.792164
0.725565
0.653751
0.579011
0.503738
0.430228
0.360517
0.296243
0.238579
0.188204
0.145338
0.109795
0.0810789
0.0584732
0.0411397
0.0282001
0.0188026
0.0121696
0.00762565
0.00461002
0.00267596
0.00148131
0.00077398
0.000375335
0.000163773
6.00007e-05
1.48406e-05
6.88882e-07
7.03399e-17
6.96575e-17
6.86888e-17
6.6934e-17
6.45564e-17
6.16902e-17
5.84561e-17
5.49624e-17
5.1305e-17
4.75673e-17
4.38208e-17
4.01253e-17
3.65295e-17
3.30725e-17
2.97838e-17
2.6685e-17
2.37905e-17
2.11084e-17
1.86416e-17
1.63886e-17
1.43443e-17
1.2501e-17
1.08488e-17
9.37615e-18
8.07073e-18
6.91961e-18
5.90966e-18
5.02789e-18
4.26168e-18
3.59895e-18
3.02829e-18
2.53905e-18
2.12139e-18
1.76632e-18
1.46569e-18
1.21216e-18
9.99176e-19
8.20943e-19
6.72345e-19
5.48908e-19
4.4674e-19
3.62473e-19
2.93212e-19
2.36478e-19
1.90161e-19
1.52472e-19
1.21903e-19
9.71872e-20
7.72667e-20
6.12603e-20
4.84378e-20
3.81965e-20
3.00408e-20
2.35647e-20
1.84369e-20
1.43881e-20
1.12e-20
8.69659e-21
6.73605e-21
5.20474e-21
4.01181e-21
3.08489e-21
2.36651e-21
1.81115e-21
1.38289e-21
1.05345e-21
8.00658e-22
6.07142e-22
4.59359e-22
3.46768e-22
2.6119e-22
1.96297e-22
1.47202e-22
1.10144e-22
8.22363e-23
6.12665e-23
4.55454e-23
3.37857e-23
2.50087e-23
1.84723e-23
1.36153e-23
1.00141e-23
7.3499e-24
5.3831e-24
3.93432e-24
2.86942e-24
2.08838e-24
1.51676e-24
1.0993e-24
7.95078e-25
5.73852e-25
4.13321e-25
2.97079e-25
2.13087e-25
1.52525e-25
1.0895e-25
7.76634e-26
5.52469e-26
3.92196e-26
2.77845e-26
1.9643e-26
1.38586e-26
9.75751e-27
6.85592e-27
4.80729e-27
3.36392e-27
2.34909e-27
1.63707e-27
1.13853e-27
7.90197e-28
5.47318e-28
3.7832e-28
2.60972e-28
1.79657e-28
1.23428e-28
8.46254e-29
5.79038e-29
3.95398e-29
2.69453e-29
1.83255e-29
1.2438e-29
8.42502e-30
5.69531e-30
3.84231e-30
2.58699e-30
1.73831e-30
1.16572e-30
7.8017e-31
5.21099e-31
3.47365e-31
2.31094e-31
1.53437e-31
1.01674e-31
6.72407e-32
4.43809e-32
2.92351e-32
1.92202e-32
1.26112e-32
8.25859e-33
5.39764e-33
)
;

boundaryField
{
    sides
    {
        type            zeroGradient;
    }
    empty
    {
        type            empty;
    }
}


// ************************************************************************* //
