/*--------------------------------*- C++ -*----------------------------------*\
| =========                 |                                                 |
| \\      /  F ield         | OpenFOAM: The Open Source CFD Toolbox           |
|  \\    /   O peration     | Version:  2312                                  |
|   \\  /    A nd           | Website:  www.openfoam.com                      |
|    \\/     M anipulation  |                                                 |
\*---------------------------------------------------------------------------*/
FoamFile
{
    version     2.0;
    format      ascii;
    arch        "LSB;label=32;scalar=64";
    class       volScalarField;
    location    "3.1";
    object      T;
}
// * * * * * * * * * * * * * * * * * * * * * * * * * * * * * * * * * * * * * //

dimensions      [0 0 0 1 0 0 0];

internalField   nonuniform List<scalar> 
1000
(
0
0
0
0
0
0
0
0
0
0
0
0
0
0
0
0
0
0
0
0
0
0
0
0
0
0
0
0
0
0
0
0
0
0
0
0
0
0
0
0
0
0
0
0
0
0
0
0
0
0
0
0
0
0
0
0
0
0
0
0
0
0
0
0
0
0
0
0
0
0
0
0
0
0
0
0
0
0
0
0
0
0
0
0
0
0
0
0
0
0
0
0
0
0
0
0
0
0
0
0
0
0
0
0
0
0
0
0
0
0
0
0
0
0
0
0
0
0
0
0
0
0
0
0
0
0
0
0
0
0
0
0
0
0
0
0
0
0
0
0
0
0
0
0
0
0
0
0
0
0
0
0
0
0
0
0
0
0
0
0
0
0
0
0
0
0
0
0
0
0
0
0
0
-4.94066e-324
2.96439e-323
-4.94066e-324
2.96439e-323
-4.94066e-324
2.96439e-323
-4.94066e-324
2.96439e-323
-4.94066e-324
2.96439e-323
-4.94066e-324
2.96439e-323
-4.94066e-324
2.96439e-323
-4.94066e-324
2.96439e-323
-4.94066e-324
2.96439e-323
-4.94066e-324
2.96439e-323
-4.94066e-324
2.96439e-323
-4.94066e-324
2.96439e-323
-4.94066e-324
2.96439e-323
-4.94066e-324
2.96439e-323
-4.94066e-324
2.96439e-323
-4.94066e-324
2.96439e-323
-4.94066e-324
2.96439e-323
-4.94066e-324
2.96439e-323
-4.94066e-324
2.96439e-323
-4.94066e-324
2.96439e-323
-4.94066e-324
2.96439e-323
-4.94066e-324
2.96439e-323
-4.94066e-324
2.96439e-323
-4.94066e-324
2.96439e-323
-4.94066e-324
2.96439e-323
-4.94066e-324
2.96439e-323
-4.94066e-324
2.96439e-323
-4.94066e-324
2.96439e-323
-4.94066e-324
2.96439e-323
-4.94066e-324
2.96439e-323
-4.94066e-324
2.96439e-323
-4.94066e-324
2.96439e-323
-4.94066e-324
2.96439e-323
-4.94066e-324
2.96439e-323
-4.94066e-324
2.96439e-323
-4.94066e-324
2.96439e-323
-4.94066e-324
2.96439e-323
-4.94066e-324
2.96439e-323
-4.94066e-324
2.96439e-323
-4.94066e-324
2.96439e-323
-4.94066e-324
2.96439e-323
-4.94066e-324
2.96439e-323
-4.94066e-324
9.88131e-324
2.96439e-323
2.71736e-322
9.53547e-322
7.59922e-320
-1.99153e-319
5.8111e-318
-1.196e-316
-9.49822e-317
-2.28361e-315
-1.9332e-314
-2.29612e-313
-1.82342e-312
-2.58741e-311
-2.28151e-310
-3.66577e-309
-3.40412e-308
-5.73571e-307
-5.42288e-306
-9.28405e-305
-8.77002e-304
-1.62554e-302
-1.52673e-301
-3.52555e-300
-3.19551e-299
-1.29599e-297
-9.92634e-297
-1.33923e-294
-5.01969e-294
-4.12702e-292
1.08196e-291
-3.16543e-290
6.48899e-289
4.98998e-289
1.24188e-287
1.05226e-286
1.24699e-285
9.90257e-285
1.40093e-283
1.23681e-282
1.96198e-281
1.82008e-280
3.04446e-279
2.88246e-278
4.94888e-277
4.70881e-276
8.47979e-275
8.05363e-274
1.5953e-272
1.49152e-271
3.62734e-270
3.24316e-269
1.15956e-267
9.05532e-267
5.74487e-265
3.10125e-264
3.45908e-262
7.13e-262
6.10416e-260
-3.50762e-260
8.2181e-258
-2.72627e-257
1.10077e-255
-7.83415e-255
1.38335e-253
-1.86866e-252
1.58022e-251
-3.90268e-250
1.79309e-249
-7.15799e-248
2.55461e-247
-1.1827e-245
4.76688e-245
-1.85316e-243
9.31939e-243
-2.90326e-241
1.71203e-240
-4.63383e-239
3.01699e-238
-7.4577e-237
5.23563e-236
-1.21042e-234
8.82832e-234
-2.00165e-232
1.45265e-231
-3.29838e-230
2.52407e-229
-5.08961e-228
4.99766e-227
-6.93186e-226
1.06075e-224
-8.26273e-224
2.14377e-222
-9.61294e-222
3.89717e-220
-1.38857e-219
6.42497e-218
-2.59727e-217
1.00708e-215
-5.05765e-215
1.58149e-213
-9.23384e-213
2.5316e-211
-1.62172e-210
4.07638e-209
-2.82418e-208
6.59339e-207
-4.80551e-206
1.08402e-204
-7.98634e-204
1.77819e-202
-1.39251e-201
2.74264e-200
-2.74125e-199
3.74523e-198
-5.79334e-197
4.43421e-196
-1.18099e-194
4.82876e-194
-2.2073e-192
5.78152e-192
-3.81023e-190
8.89046e-190
-6.27211e-188
1.60784e-187
-1.01517e-185
2.9699e-185
-1.64264e-183
5.3453e-183
-2.67219e-181
9.31272e-181
-4.38177e-179
1.57088e-178
-7.23237e-177
2.63762e-176
-1.18277e-174
4.80941e-174
-1.84702e-172
1.02835e-171
-2.63091e-170
2.39773e-169
-3.33062e-168
5.33595e-167
-3.84856e-166
1.06758e-164
-4.51684e-164
-4.86204e-164
6.79593e-162
-2.62565e-161
-6.25911e-161
4.25943e-159
-1.16076e-159
-9.34551e-158
1.7492e-156
5.49409e-156
-8.47327e-155
1.32879e-155
5.82199e-153
-1.03755e-152
-1.99574e-151
1.58651e-150
1.06213e-149
-1.16517e-148
-3.51538e-148
7.74859e-147
1.69164e-146
-4.07617e-145
-6.84471e-145
2.16577e-143
3.68083e-143
-1.0334e-141
-1.94037e-141
4.56935e-140
1.09385e-139
-1.86061e-138
-7.29329e-138
6.29813e-137
4.23015e-136
-1.775e-135
-2.49617e-134
2.98644e-134
1.34318e-132
4.78717e-133
-7.39514e-131
-1.20359e-130
1.97561e-129
8.34169e-129
-3.93961e-128
-7.20905e-127
-1.82614e-127
2.89617e-125
3.71132e-125
-7.4842e-124
-6.69106e-123
2.62146e-123
2.83616e-121
2.92604e-121
-7.13729e-120
-5.84808e-119
1.50814e-119
2.72431e-117
5.19493e-117
-3.69077e-116
-5.2681e-115
-3.28332e-115
1.43863e-113
7.70735e-113
-5.31884e-113
-4.03527e-111
-1.21647e-110
2.70105e-110
9.1387e-109
1.86593e-108
-7.43111e-108
-1.33778e-106
-1.32599e-106
1.88155e-105
3.34164e-104
5.17767e-104
-2.59882e-103
-5.10299e-102
-7.48939e-102
3.92393e-101
8.22203e-100
1.7142e-99
-4.01615e-99
-1.14436e-97
-4.49791e-97
7.22246e-98
1.24953e-95
9.27965e-95
7.23645e-95
-1.0913e-93
-1.60633e-92
-3.23005e-92
5.33452e-92
1.52424e-90
9.11019e-90
6.47357e-90
-9.81791e-89
-1.43611e-87
-4.49507e-87
2.54291e-88
9.06305e-86
9.34477e-85
1.42249e-84
-3.01416e-84
-6.60891e-83
-5.50086e-82
-6.90835e-82
2.00274e-81
3.72079e-80
3.10481e-79
4.52932e-79
-7.78464e-79
-1.6671e-77
-1.52871e-76
-3.11294e-76
1.27283e-76
6.16275e-75
6.13368e-74
1.88475e-73
8.07513e-74
-1.81993e-72
-1.9758e-71
-1.68446e-70
-1.34708e-69
-1.04707e-68
-7.98977e-68
-5.99789e-67
-4.43716e-66
-3.07177e-65
-7.75075e-65
-3.59716e-65
5.81881e-64
5.64871e-63
4.18589e-62
2.88443e-61
1.92671e-60
1.26189e-59
8.13164e-59
5.16151e-58
3.22853e-57
1.99045e-56
1.2097e-55
7.24818e-55
4.28204e-54
2.4945e-53
1.43307e-52
8.11975e-52
4.53779e-51
2.50156e-50
1.36043e-49
7.29918e-49
3.86403e-48
2.0184e-47
1.04041e-46
5.29253e-46
2.65714e-45
1.3167e-44
6.44034e-44
3.10961e-43
1.4822e-42
6.97483e-42
3.24052e-41
1.48652e-40
6.73333e-40
3.01169e-39
1.33026e-38
5.80265e-38
2.49979e-37
1.06362e-36
4.46983e-36
1.85541e-35
7.60762e-35
3.0813e-34
1.23286e-33
4.87305e-33
1.90288e-32
7.34111e-32
2.79809e-31
1.05372e-30
3.92074e-30
1.44144e-29
5.23632e-29
1.8796e-28
6.66688e-28
2.33673e-27
8.09343e-27
2.77014e-26
9.36962e-26
3.13186e-25
1.03454e-24
3.37723e-24
1.08956e-23
3.47392e-23
1.09464e-22
3.40886e-22
1.04914e-21
3.19115e-21
9.59294e-21
2.85001e-20
8.36816e-20
2.4283e-19
6.96406e-19
1.97381e-18
5.5288e-18
1.5305e-17
4.18704e-17
1.13201e-16
3.02448e-16
7.98558e-16
2.08357e-15
5.37214e-15
1.36872e-14
3.44588e-14
8.57219e-14
2.10707e-13
5.11737e-13
1.22796e-12
2.91121e-12
6.81868e-12
1.57779e-11
3.60661e-11
8.14392e-11
1.81649e-10
4.00197e-10
8.70835e-10
1.87152e-09
3.97215e-09
8.32535e-09
1.72305e-08
3.52113e-08
7.10437e-08
1.41513e-07
2.78265e-07
5.40108e-07
1.03472e-06
1.95636e-06
3.65018e-06
6.72017e-06
1.22068e-05
2.1874e-05
3.86647e-05
6.74075e-05
0.000115893
0.000196472
0.000328386
0.000541059
0.000878654
0.00140617
0.00221733
0.00344451
0.00527048
0.0079418
0.0117829
0.0172094
0.0247382
0.0349921
0.0486945
0.0666502
0.0897096
0.118713
0.154412
0.19738
0.247899
0.30586
0.370668
0.441185
0.515719
0.592085
0.667732
0.739942
0.80608
0.863862
0.911607
0.94841
0.974222
0.989887
0.99732
0.99962
0.999979
1
1
1
1
1
1
1
1
1
1
1
1
1
1
1
1
1
1
1
1
1
1
1
1
1
1
1
1
1
1
1
1
1
1
1
1
1
1
1
1
1
1
1
1
1
1
1
1
1
1
1
1
1
1
0.999999
0.999999
0.999998
0.999996
0.999993
0.999988
0.999978
0.999961
0.999932
0.999884
0.999803
0.999671
0.999458
0.99912
0.998592
0.99778
0.996552
0.994725
0.992051
0.988207
0.982777
0.975243
0.964984
0.951274
0.933309
0.91024
0.881225
0.845514
0.802534
0.752002
0.69403
0.629213
0.558691
0.484154
0.40779
0.332149
0.259949
0.193826
0.136059
0.0883318
0.0515464
0.0257507
0.0100985
0.00267483
0.000378587
2.10998e-05
3.33829e-07
1.11343e-09
6.1333e-13
5.62249e-17
5.06998e-21
4.50708e-25
3.95992e-29
3.44798e-33
2.98353e-37
2.57219e-41
2.21419e-45
1.90615e-49
1.64262e-53
1.41751e-57
1.2249e-61
1.05958e-65
9.17166e-70
7.9412e-74
6.8758e-78
5.95231e-82
5.1516e-86
4.45756e-90
3.85631e-94
3.33577e-98
2.88534e-102
2.49573e-106
2.15878e-110
1.86738e-114
1.61538e-118
1.39742e-122
1.20889e-126
1.0458e-130
9.04705e-135
7.8264e-139
6.77037e-143
5.85677e-147
5.06641e-151
4.38267e-155
3.79118e-159
3.27951e-163
2.83688e-167
2.45399e-171
2.12277e-175
1.83625e-179
1.5884e-183
1.37399e-187
1.18852e-191
1.02809e-195
8.89302e-200
7.69249e-204
6.654e-208
5.75569e-212
4.97863e-216
4.30645e-220
3.72502e-224
3.22207e-228
2.78702e-232
2.4107e-236
2.08519e-240
1.80362e-244
1.56006e-248
1.34939e-252
1.16717e-256
1.00955e-260
8.73206e-265
7.55277e-269
6.53272e-273
5.65041e-277
4.88725e-281
4.22715e-285
3.65619e-289
3.16234e-293
2.73519e-297
2.36573e-301
2.04617e-305
1.76977e-309
1.5307e-313
1.32392e-317
1.12647e-321
0
0
0
0
0
0
0
0
0
0
0
0
0
0
0
0
0
0
0
0
0
0
0
0
0
0
0
0
0
0
0
0
0
0
0
0
0
0
0
0
0
0
0
0
0
0
0
0
0
0
0
0
0
0
0
0
0
0
0
0
0
0
0
0
0
0
0
0
0
0
0
0
0
0
0
0
0
0
0
0
0
0
0
0
0
0
0
0
0
0
0
0
0
0
0
0
0
0
0
0
0
0
0
0
0
0
0
0
0
0
0
0
0
0
0
0
0
0
0
0
0
0
0
0
0
0
0
0
0
0
0
0
0
0
0
0
0
0
0
0
0
)
;

boundaryField
{
    sides
    {
        type            zeroGradient;
    }
    empty
    {
        type            empty;
    }
}


// ************************************************************************* //
