/*--------------------------------*- C++ -*----------------------------------*\
| =========                 |                                                 |
| \\      /  F ield         | OpenFOAM: The Open Source CFD Toolbox           |
|  \\    /   O peration     | Version:  2312                                  |
|   \\  /    A nd           | Website:  www.openfoam.com                      |
|    \\/     M anipulation  |                                                 |
\*---------------------------------------------------------------------------*/
FoamFile
{
    version     2.0;
    format      ascii;
    arch        "LSB;label=32;scalar=64";
    class       volScalarField;
    location    "2.1";
    object      T;
}
// * * * * * * * * * * * * * * * * * * * * * * * * * * * * * * * * * * * * * //

dimensions      [0 0 0 1 0 0 0];

internalField   nonuniform List<scalar> 
1000
(
0
0
0
0
0
0
0
0
0
0
0
0
0
0
0
0
0
0
0
0
0
0
0
0
0
0
0
0
0
0
0
0
0
0
0
0
0
0
0
0
0
0
0
0
0
0
0
0
0
0
0
0
0
0
0
0
0
0
0
0
0
0
0
0
0
0
0
0
0
0
0
0
0
0
0
0
0
0
0
0
0
0
0
0
0
0
0
0
0
0
0
0
0
0
0
0
0
0
0
0
0
0
0
0
0
0
0
0
0
0
0
0
0
0
0
0
0
0
0
0
0
0
0
0
0
0
0
0
0
0
0
0
0
0
0
0
0
0
0
0
0
0
0
0
0
0
0
0
0
0
0
0
0
0
0
0
0
0
0
0
0
0
0
0
0
0
0
0
0
0
0
0
0
-4.94066e-324
2.96439e-323
-4.94066e-324
2.96439e-323
-4.94066e-324
2.96439e-323
-4.94066e-324
2.96439e-323
-4.94066e-324
2.96439e-323
-4.94066e-324
2.96439e-323
-4.94066e-324
2.96439e-323
-4.94066e-324
2.96439e-323
-4.94066e-324
2.96439e-323
-4.94066e-324
2.96439e-323
-4.94066e-324
2.96439e-323
-4.94066e-324
2.96439e-323
-4.94066e-324
2.96439e-323
-4.94066e-324
2.96439e-323
-4.94066e-324
2.96439e-323
-4.94066e-324
2.96439e-323
-4.94066e-324
2.96439e-323
-4.94066e-324
2.96439e-323
-4.94066e-324
2.96439e-323
-4.94066e-324
2.96439e-323
-4.94066e-324
2.96439e-323
-4.94066e-324
2.96439e-323
-4.94066e-324
2.96439e-323
-4.94066e-324
2.96439e-323
-4.94066e-324
2.96439e-323
-4.94066e-324
2.96439e-323
-4.94066e-324
2.96439e-323
-4.94066e-324
2.96439e-323
-4.94066e-324
2.96439e-323
-4.94066e-324
1.03754e-322
-1.17094e-321
1.53704e-320
-1.97626e-319
2.54277e-318
-3.27061e-317
4.20873e-316
-5.41298e-315
6.96599e-314
-8.95889e-313
1.15294e-311
-1.48279e-310
1.90821e-309
-2.45417e-308
3.15824e-307
-4.06188e-306
5.22719e-305
-6.72279e-304
8.6515e-303
-1.11268e-301
1.4319e-300
-1.84161e-299
2.36989e-298
-3.04811e-297
3.92225e-296
-5.04516e-295
6.49129e-294
-8.35079e-293
1.07429e-291
-1.38222e-290
1.77796e-289
-2.2878e-288
2.94259e-287
-3.78663e-286
4.87017e-285
-6.26731e-284
8.06053e-283
-1.0373e-281
1.33409e-280
-1.71683e-279
2.20805e-278
-2.84151e-277
3.65452e-276
-4.70297e-275
6.04857e-274
-7.78383e-273
1.0011e-271
-1.28828e-270
1.65696e-269
-2.13214e-268
2.74256e-267
-3.52868e-266
4.5395e-265
-5.83988e-264
7.51377e-263
-9.66503e-262
1.24365e-260
-1.5996e-259
2.05842e-258
-2.64743e-257
3.40692e-256
-4.38172e-255
5.63878e-254
-7.25215e-253
9.33271e-252
-1.2003e-250
1.54465e-249
-1.9866e-248
2.55655e-247
-3.28801e-246
4.23131e-245
-5.442e-244
7.00316e-243
-9.0071e-242
1.15907e-240
-1.49079e-239
1.91832e-238
-2.46748e-237
3.17489e-236
-4.08403e-235
5.25461e-234
-6.75958e-233
8.69675e-232
-1.11879e-230
1.43937e-229
-1.85172e-228
2.38225e-227
-3.06484e-226
3.94277e-225
-5.07268e-224
6.52559e-223
-8.39578e-222
1.08005e-220
-1.38957e-219
1.7876e-218
-2.29985e-217
2.95866e-216
-3.80646e-215
4.89686e-214
-6.30004e-213
8.10476e-212
-1.04271e-210
1.34142e-209
-1.72578e-208
2.22017e-207
-2.85634e-206
3.67458e-205
-4.72752e-204
6.08178e-203
-7.82444e-202
1.0066e-200
-1.295e-199
1.66605e-198
-2.1433e-197
2.75752e-196
-3.54732e-195
4.56396e-194
-5.87117e-193
7.55373e-192
-9.71742e-191
1.2502e-189
-1.60833e-188
2.0692e-187
-2.66194e-186
3.42471e-185
-4.40576e-184
5.66821e-183
-7.29197e-182
9.38139e-181
-1.20689e-179
1.55271e-178
-1.99751e-177
2.56988e-176
-3.30607e-175
4.25337e-174
-5.47191e-173
7.03962e-172
-9.0567e-171
1.1651e-169
-1.49899e-168
1.92833e-167
-2.48099e-166
3.19156e-165
-4.10626e-164
5.28234e-163
-6.79622e-162
8.74279e-161
-1.12484e-159
1.44702e-158
-1.8617e-157
2.39495e-156
-3.08129e-155
3.96387e-154
-5.09982e-153
6.56057e-152
-8.44068e-151
1.08584e-149
-1.39701e-148
1.79716e-147
-2.31217e-146
2.9745e-145
-3.82681e-144
4.92316e-143
-6.33359e-142
8.14845e-141
-1.04825e-139
1.34866e-138
-1.73494e-137
2.23216e-136
-2.8715e-135
3.69443e-134
-4.7526e-133
6.11461e-132
-7.86603e-131
1.01202e-129
-1.30191e-128
1.67498e-127
-2.15478e-126
2.77224e-125
-3.56638e-124
4.58831e-123
-5.90271e-122
7.59407e-121
-9.76953e-120
1.25689e-118
-1.61694e-117
2.08028e-116
-2.67618e-115
3.44307e-114
-4.42931e-113
5.69862e-112
4.28772e-112
-2.67773e-110
2.71413e-109
7.27822e-109
-1.85365e-107
8.80073e-108
8.51191e-106
-4.45128e-105
-3.52877e-104
4.38775e-103
1.28259e-102
-2.87578e-101
-4.76548e-101
1.55598e-99
2.06921e-99
-7.73047e-98
-1.06618e-97
3.55002e-96
6.34278e-96
-1.46264e-94
-4.19986e-94
4.91169e-93
2.8354e-92
-1.18015e-91
-1.6525e-90
1.29197e-90
9.67811e-89
8.50666e-89
-3.42913e-87
-1.10701e-86
5.81984e-86
8.17046e-85
9.69389e-86
-3.76826e-83
-8.68989e-83
5.2363e-82
7.89268e-81
4.52869e-81
-2.35855e-79
-1.10686e-78
1.22034e-78
6.44137e-77
1.43229e-76
-5.46419e-76
-1.36008e-74
-2.07032e-74
1.27289e-73
2.42219e-72
3.26396e-72
-2.19638e-71
-4.08609e-70
-6.34683e-70
2.79767e-69
6.18764e-68
1.57731e-67
-1.99754e-67
-7.14915e-66
-3.83466e-65
-1.75582e-65
6.0819e-64
7.06472e-63
9.84393e-63
-3.35818e-62
-6.82155e-61
-8.23412e-60
-9.04465e-59
-9.53703e-58
-9.79783e-57
-8.71166e-56
-1.73807e-55
9.83944e-56
3.97999e-54
4.24905e-53
3.90701e-52
3.41348e-51
2.89027e-50
2.38317e-49
1.91637e-48
1.50379e-47
1.15201e-46
8.6187e-46
6.29924e-45
4.49912e-44
3.14115e-43
2.14435e-42
1.43175e-41
9.35216e-41
5.97781e-40
3.73991e-39
2.29069e-38
1.37391e-37
8.07091e-37
4.64464e-36
2.61896e-35
1.44722e-34
7.83877e-34
4.16238e-33
2.16715e-32
1.10652e-31
5.54133e-31
2.7222e-30
1.31201e-29
6.20468e-29
2.87956e-28
1.31162e-27
5.86425e-27
2.5739e-26
1.10915e-25
4.69297e-25
1.94988e-24
7.95628e-24
3.18852e-23
1.25511e-22
4.85307e-22
1.84343e-21
6.87923e-21
2.52222e-20
9.08614e-20
3.21627e-19
1.11872e-18
3.82389e-18
1.28446e-17
4.24017e-17
1.37563e-16
4.38624e-16
1.37454e-15
4.2336e-15
1.28159e-14
3.81312e-14
1.11507e-13
3.20492e-13
9.05351e-13
2.51361e-12
6.85884e-12
1.83936e-11
4.84766e-11
1.25554e-10
3.19557e-10
7.99213e-10
1.96404e-09
4.7423e-09
1.12499e-08
2.6218e-08
6.00214e-08
1.34969e-07
2.98084e-07
6.4652e-07
1.37694e-06
2.87929e-06
5.91072e-06
1.19103e-05
2.3554e-05
4.57094e-05
8.70304e-05
0.000162549
0.000297758
0.000534839
0.000941825
0.00162557
0.00274933
0.00455537
0.00739226
0.0117454
0.0182667
0.0277987
0.0413825
0.0602407
0.0857223
0.1192
0.161912
0.214762
0.27808
0.351392
0.433238
0.521092
0.611447
0.700075
0.782478
0.854452
0.912689
0.955263
0.982027
0.995121
0.999291
0.999959
0.999999
1
1
1
1
1
1
1
1
1
1
1
1
1
1
1
1
1
1
1
1
1
1
1
1
1
1
1
1
1
1
1
1
1
1
1
1
1
1
1
1
1
1
1
1
1
1
1
1
1
1
1
1
1
1
1
1
1
1
1
1
0.999999
0.999999
0.999997
0.999994
0.999988
0.999976
0.999954
0.999913
0.999837
0.999702
0.999464
0.999057
0.998372
0.997247
0.995439
0.9926
0.988243
0.981716
0.972177
0.958584
0.939714
0.914218
0.880726
0.837996
0.785129
0.721795
0.64847
0.566616
0.478759
0.388408
0.29979
0.217406
0.145453
0.0872412
0.044691
0.0179484
0.00486975
0.000707166
4.05136e-05
6.59557e-07
2.2629e-09
1.28046e-12
1.17273e-16
1.05633e-20
9.37805e-25
8.22624e-29
7.14859e-33
6.17094e-37
5.3053e-41
4.55248e-45
3.90555e-49
3.35328e-53
2.88283e-57
2.48167e-61
2.13865e-65
1.84436e-69
1.59112e-73
1.37271e-77
1.18413e-81
1.02121e-85
8.80511e-90
7.59045e-94
6.54249e-98
5.63882e-102
4.85988e-106
4.18859e-110
3.61013e-114
3.11165e-118
2.68206e-122
2.3118e-126
1.99267e-130
1.71758e-134
1.48045e-138
1.27603e-142
1.09983e-146
9.47944e-151
8.17024e-155
7.04177e-159
6.06912e-163
5.23077e-167
4.50819e-171
3.88541e-175
3.34863e-179
2.88599e-183
2.48724e-187
2.14357e-191
1.84738e-195
1.5921e-199
1.37208e-203
1.18246e-207
1.01904e-211
8.78197e-216
7.56816e-220
6.52208e-224
5.62055e-228
4.84362e-232
4.17405e-236
3.59703e-240
3.09976e-244
2.67122e-248
2.30192e-252
1.98367e-256
1.7094e-260
1.47306e-264
1.26938e-268
1.09386e-272
9.4261e-277
8.12268e-281
6.99946e-285
6.03154e-289
5.19744e-293
4.47866e-297
3.85927e-301
3.32552e-305
2.86558e-309
2.46923e-313
2.12769e-317
1.82804e-321
0
0
0
0
0
0
0
0
0
0
0
0
0
0
0
0
0
0
0
0
0
0
0
0
0
0
0
0
0
0
0
0
0
0
0
0
0
0
0
0
0
0
0
0
0
0
0
0
0
0
0
0
0
0
0
0
0
0
0
0
0
0
0
0
0
0
0
0
0
0
0
0
0
0
0
0
0
0
0
0
0
0
0
0
0
0
0
0
0
0
0
0
0
0
0
0
0
0
0
0
0
0
0
0
0
0
0
0
0
0
0
0
0
0
0
0
0
0
0
0
0
0
0
0
0
0
0
0
0
0
0
0
0
0
0
0
0
0
0
0
0
0
0
0
0
0
0
0
0
0
0
0
0
0
0
0
0
0
0
0
0
0
0
0
0
0
0
0
0
0
0
0
0
0
0
0
0
0
0
0
0
0
0
0
0
0
0
0
0
0
0
0
0
0
0
0
0
0
0
0
0
0
0
0
0
0
0
0
0
0
0
0
0
)
;

boundaryField
{
    sides
    {
        type            zeroGradient;
    }
    empty
    {
        type            empty;
    }
}


// ************************************************************************* //
