/*--------------------------------*- C++ -*----------------------------------*\
| =========                 |                                                 |
| \\      /  F ield         | OpenFOAM: The Open Source CFD Toolbox           |
|  \\    /   O peration     | Version:  2312                                  |
|   \\  /    A nd           | Website:  www.openfoam.com                      |
|    \\/     M anipulation  |                                                 |
\*---------------------------------------------------------------------------*/
FoamFile
{
    version     2.0;
    format      ascii;
    arch        "LSB;label=32;scalar=64";
    class       volScalarField;
    location    "3.4";
    object      T;
}
// * * * * * * * * * * * * * * * * * * * * * * * * * * * * * * * * * * * * * //

dimensions      [0 0 0 1 0 0 0];

internalField   nonuniform List<scalar> 
1000
(
5.67069e-17
-4.43515e-17
9.75883e-17
-1.59256e-16
2.76578e-16
-4.71448e-16
8.04231e-16
-1.36664e-15
2.31589e-15
-3.91248e-15
6.58982e-15
-1.10654e-14
1.85236e-14
-3.0913e-14
5.14281e-14
-8.52899e-14
1.41001e-13
-2.3236e-13
3.81688e-13
-6.2496e-13
1.01996e-12
-1.65916e-12
2.69003e-12
-4.3469e-12
7.00076e-12
-1.12368e-11
1.79745e-11
-2.86535e-11
4.5519e-11
-7.20595e-11
1.13673e-10
-1.78682e-10
2.79865e-10
-4.3676e-10
6.79131e-10
-1.05212e-09
1.62391e-09
-2.49707e-09
3.82521e-09
-5.83741e-09
8.87377e-09
-1.34371e-08
2.0267e-08
-3.04473e-08
4.55579e-08
-6.78913e-08
1.00759e-07
-1.48919e-07
2.19176e-07
-3.21215e-07
4.68742e-07
-6.81062e-07
9.85216e-07
-1.41888e-06
2.03424e-06
-2.90321e-06
4.12428e-06
-5.83157e-06
8.20657e-06
-1.14934e-05
1.60183e-05
-2.22144e-05
3.06527e-05
-4.20813e-05
5.74723e-05
-7.80802e-05
0.000105511
-0.000141805
0.00018953
-0.000251893
0.000332857
-0.000437276
0.000571031
-0.000741167
0.000956024
-0.00122534
0.00156033
-0.00197371
0.0024796
-0.00309339
0.00383143
-0.00471056
0.0057474
-0.00695752
0.00835429
-0.00994746
0.0117416
-0.0137343
0.0159142
-0.018259
0.0207336
-0.0232887
0.0258593
-0.028365
0.03071
-0.0327853
0.034472
-0.0356461
0.036185
-0.0359756
0.0349232
-0.032962
0.0300646
-0.0262516
0.0215991
-0.0162429
0.0103791
-0.00425956
-0.00181811
0.00752673
-0.0125309
0.0165129
-0.0192013
0.0203996
-0.0200117
0.0180622
-0.0147063
0.0102282
-0.00502549
-0.000420482
0.00558705
-0.00996219
0.0131008
-0.014679
0.0145387
-0.0127168
0.00945079
-0.00515986
0.000399823
0.00420425
-0.00803994
0.0105936
-0.0115275
0.0107364
-0.00837079
0.00482263
-0.000670575
-0.00340789
0.0067457
-0.00879909
0.00924439
-0.00804008
0.00544014
-0.00195327
-0.00174784
0.00495237
-0.0070494
0.00765082
-0.00667305
0.00435809
-0.00122645
-0.00203123
0.004703
-0.00621312
0.00625288
-0.00485323
0.00237965
0.00055268
-0.00322585
0.00499445
-0.00544621
0.00450665
-0.00245893
-0.000129206
0.00255481
-0.00416767
0.00454638
-0.00361366
0.00165662
0.000756287
-0.00294035
0.00429557
-0.00448483
0.00353542
-0.00183122
-4.27217e-06
0.00129984
-0.00154444
0.000544875
0.00151861
-0.00415862
0.00674898
-0.00874005
0.00984872
-0.010157
0.0100835
-0.0102353
0.0111912
-0.0132914
0.0165114
-0.0204643
0.0245337
-0.0280869
0.0306891
-0.0322371
0.0329592
-0.033283
0.0336222
-0.0341691
0.0347792
-0.0349978
0.0342223
-0.0319369
0.0279255
-0.0223752
0.0158283
-0.00900348
0.00256256
0.0030776
-0.00780923
0.0117518
-0.0150692
0.0177788
-0.0196509
0.0202552
-0.0191417
0.0160771
-0.0112255
0.00518661
0.00113801
-0.00679568
0.0110461
-0.0135273
0.0142624
-0.013525
0.011647
-0.00887597
0.00535636
-0.00123266
-0.00319945
0.00740251
-0.0106482
0.0122157
-0.0116585
0.0090133
-0.00484364
8.44946e-05
0.00424814
-0.00735643
0.00884351
-0.0087208
0.00727357
-0.0048853
0.00192534
0.00125434
-0.00425151
0.00656796
-0.00766897
0.00715896
-0.00499605
0.00161839
0.00211774
-0.00519487
0.0067862
-0.0065434
0.00468988
-0.0018878
-0.00103974
0.00338818
-0.00473311
0.00494123
-0.00408932
0.00238603
-0.000153214
-0.00215468
0.00397083
-0.00473989
0.0041312
-0.00223819
-0.000369445
0.0028137
-0.0042466
0.00420164
-0.00278039
0.000581725
0.00157957
-0.00301016
0.00336658
-0.00269485
0.00131802
0.00032297
-0.00178678
0.0026929
-0.00277225
0.00194801
-0.000423757
-0.00130352
0.00257918
-0.00286012
0.00199221
-0.000328024
-0.00141146
0.00247754
-0.00245391
0.00143672
5.47465e-05
-0.00136401
0.00200385
-0.00182491
0.000999442
0.000113014
-0.00111414
0.00167187
-0.00159108
0.000876942
0.000223513
-0.0012623
0.00175663
-0.00143355
0.000414363
0.000803791
-0.00159721
0.00156352
-0.000751653
-0.000376005
0.00122282
-0.00139439
0.000884256
-2.01152e-05
-0.000755526
0.00111225
-0.000947867
0.000379458
0.000333656
-0.000884006
0.00101823
-0.000647708
-7.35797e-05
0.000780177
-0.00107082
0.000753576
3.7943e-06
-0.000750258
0.0010317
-0.000689195
-3.94942e-05
0.00068931
-0.000880755
0.000549785
5.24311e-05
-0.000556193
0.000703691
-0.000464744
4.84295e-06
0.000427867
-0.000618176
0.000469035
-5.02589e-05
-0.00041219
0.00063788
-0.000463419
-2.21603e-05
0.000503053
-0.000643871
0.00034002
0.000191085
-0.000567292
0.000530365
-0.000133741
-0.000317417
0.000510648
-0.00034807
-1.81228e-05
0.000329288
-0.000403194
0.000225513
7.5784e-05
-0.000318003
0.000357209
-0.000162835
-0.000150245
0.000370913
-0.000328285
3.46606e-05
0.000294862
-0.000398021
0.000185562
0.000170967
-0.000378789
0.000275011
3.82075e-05
-0.000294578
0.000298505
-7.64052e-05
-0.000175054
0.000267997
-0.000159752
-4.75314e-05
0.000203712
-0.000209808
6.70398e-05
0.000126904
-0.000230912
0.000155121
5.47311e-05
-0.000229307
0.000210106
-2.51348e-06
-0.000210286
0.000231434
-4.20039e-05
-0.000177388
0.000223754
-6.71224e-05
-0.000133322
0.000195961
-8.47411e-05
-8.17287e-05
0.000159614
-0.000101694
-2.8547e-05
0.000126389
-0.000121459
1.8112e-05
0.000104831
-0.000142341
5.0074e-05
9.7473e-05
-0.000158198
6.2561e-05
9.9873e-05
-0.000161879
5.72369e-05
0.000102782
-0.000149987
4.26259e-05
9.72178e-05
-0.000126352
3.0606e-05
8.02007e-05
-0.000101466
2.99703e-05
5.75975e-05
-8.70978e-05
4.06188e-05
4.12852e-05
-8.86214e-05
5.27983e-05
4.12384e-05
-0.00010031
5.33652e-05
5.74169e-05
-0.000108201
3.58758e-05
7.811e-05
-0.000100144
6.94323e-06
8.78132e-05
-7.60708e-05
-1.76823e-05
7.9847e-05
-4.91498e-05
-2.60678e-05
6.28927e-05
-3.46341e-05
-2.14848e-05
5.35791e-05
-3.48833e-05
-2.02062e-05
5.97191e-05
-3.55396e-05
-3.50528e-05
7.03735e-05
-1.95482e-05
-5.99771e-05
6.5522e-05
1.32126e-05
-7.38753e-05
3.81488e-05
4.29387e-05
-6.30636e-05
4.31614e-06
5.06288e-05
-3.80188e-05
-1.38621e-05
4.04841e-05
-2.16108e-05
-1.48658e-05
3.44357e-05
-1.9785e-05
-1.91223e-05
4.16811e-05
-1.32363e-05
-3.87588e-05
4.346e-05
1.37646e-05
-5.56619e-05
1.93307e-05
4.49826e-05
-4.40682e-05
-1.84274e-05
4.99838e-05
-1.02734e-05
-3.67271e-05
2.81248e-05
1.2707e-05
-2.8685e-05
1.00242e-05
1.39071e-05
-2.15932e-05
8.01093e-06
1.81466e-05
-2.70348e-05
-2.485e-06
3.56533e-05
-1.81117e-05
-3.14309e-05
3.5413e-05
1.71258e-05
-4.34695e-05
1.15657e-06
4.03954e-05
-1.66741e-05
-2.8364e-05
2.44648e-05
1.22037e-05
-2.2696e-05
2.61914e-06
1.27284e-05
-1.18301e-05
1.84036e-06
1.34457e-05
-1.66212e-05
-7.96789e-06
2.7818e-05
-2.1781e-06
-3.31578e-05
1.36259e-05
3.2209e-05
-2.30997e-05
-2.61434e-05
2.82072e-05
1.71371e-05
-2.78488e-05
-7.65169e-06
2.22341e-05
-1.98806e-07
-1.26017e-05
5.06335e-06
7.83345e-07
-6.50869e-06
1.12494e-05
4.94121e-06
-2.17533e-05
-1.36728e-06
2.94427e-05
-2.9221e-06
-3.35754e-05
6.66532e-06
3.39224e-05
-8.88629e-06
-3.06694e-05
9.06119e-06
2.42977e-05
-7.1851e-06
-1.54826e-05
3.74265e-06
5.03204e-06
4.04666e-07
6.13557e-06
-4.19781e-06
-1.69888e-05
6.60549e-06
2.63889e-05
-6.86904e-06
-3.31386e-05
4.73088e-06
3.61063e-05
-5.98916e-07
-3.44387e-05
-4.41007e-06
2.78407e-05
8.6036e-06
-1.68634e-05
-1.00573e-05
3.09463e-06
7.15486e-06
1.08762e-05
7.66616e-07
-2.18354e-05
-1.28463e-05
2.67065e-05
2.64549e-05
-2.35972e-05
-3.75314e-05
1.28509e-05
4.16416e-05
2.34864e-06
-3.56477e-05
-1.63122e-05
1.95154e-05
2.24334e-05
2.54923e-06
-1.58644e-05
-2.25428e-05
-3.56421e-06
3.12322e-05
2.96412e-05
-2.2467e-05
-5.08552e-05
-2.41438e-06
5.49807e-05
3.27266e-05
-3.60362e-05
-5.15747e-05
2.31849e-07
4.43598e-05
3.36686e-05
-9.35595e-06
-4.26126e-05
-3.63781e-05
1.42515e-05
6.26384e-05
3.97609e-05
-4.45532e-05
-8.39913e-05
-1.5172e-05
7.96804e-05
7.79704e-05
-1.73478e-05
-8.99851e-05
-6.30099e-05
2.6648e-05
9.06827e-05
7.12663e-05
-2.3233e-05
-0.000112987
-9.67249e-05
3.53474e-05
0.000152785
0.000113398
-5.84548e-05
-0.000182276
-0.000123851
6.04483e-05
0.000195206
0.000158879
-2.4075e-05
-0.000210566
-0.000235883
-4.27518e-05
0.000232707
0.000338359
0.000138005
-0.000224715
-0.00043302
-0.000285617
0.000122493
0.000482312
0.000507482
0.000133728
-0.000420469
-0.000759752
-0.000567645
0.00012107
0.000866566
0.001103
0.000563304
-0.000493543
-0.00142424
-0.00158726
-0.000725046
0.000839123
0.00228155
0.00265689
0.00144843
-0.00101788
-0.00360184
-0.00485781
-0.00374868
-0.000204418
0.00469238
0.00894679
0.0102829
0.00703083
-0.00102198
-0.0121729
-0.02294
-0.0287057
-0.024612
-0.0064761
0.0284189
0.0807961
0.149267
0.230663
0.320667
0.414504
0.507531
0.595702
0.67593
0.746283
0.805945
0.854986
0.894087
0.924338
0.947088
0.963781
0.975764
0.984156
0.989853
0.993597
0.996018
0.997595
0.998619
0.999236
0.999552
0.999703
0.999814
0.999933
1.00002
1.00002
0.999963
0.99993
0.999971
1.00005
1.00007
1.00001
0.999933
0.999926
1
1.00008
1.00008
0.99998
0.999897
0.999921
1.00003
1.00012
1.00009
0.999954
0.999856
0.999898
1.00005
1.00017
1.00013
0.999953
0.999802
0.999827
1.00002
1.00023
1.00024
1.00003
0.999761
0.999675
0.999871
1.00021
1.00042
1.00029
0.999892
0.999513
0.999477
0.999866
1.00044
1.00076
1.00055
0.999869
0.999146
0.998911
0.999429
1.00048
1.00143
1.00161
1.00073
0.999144
0.997707
0.997356
0.998569
1.00101
1.00358
1.00486
1.00377
1.00022
0.995293
0.991034
0.989723
0.992992
1.00103
1.01215
1.02292
1.02872
1.02464
1.00647
0.971556
0.919192
0.850753
0.769361
0.679326
0.585467
0.492459
0.404323
0.324096
0.253707
0.194022
0.145003
0.105941
0.0756922
0.0529032
0.0361809
0.0242193
0.0158718
0.0101851
0.00640099
0.00394035
0.00237612
0.0014037
0.000812389
0.000460599
0.000255813
0.000139159
7.41329e-05
3.86649e-05
1.97375e-05
9.85744e-06
4.81409e-06
2.29758e-06
1.07077e-06
4.86826e-07
2.1566e-07
9.29424e-08
3.88897e-08
1.57572e-08
6.15996e-09
2.31154e-09
8.26249e-10
2.77863e-10
8.59846e-11
2.33578e-11
4.85886e-12
2.56613e-13
-4.78796e-13
-3.70252e-13
-1.93771e-13
-8.48745e-14
-3.27875e-14
-1.12823e-14
-3.39622e-15
-8.35249e-16
-1.25134e-16
2.26485e-17
3.06766e-17
1.72917e-17
7.46852e-18
2.71005e-18
8.32202e-19
2.03711e-19
2.92968e-20
-5.85465e-21
-7.16234e-21
-3.7845e-21
-1.51124e-21
-4.92586e-22
-1.2762e-22
-2.12903e-23
1.65515e-24
3.4185e-24
1.86725e-24
7.32408e-25
2.27165e-25
5.31477e-26
6.23504e-27
-2.17203e-27
-1.94321e-27
-8.90332e-28
-3.03927e-28
-7.89951e-29
-1.27333e-29
1.12755e-30
1.97613e-30
9.92825e-31
3.49815e-31
9.20378e-32
1.5004e-32
-1.1439e-33
-2.15475e-33
-1.06126e-33
-3.60074e-34
-8.85863e-35
-1.18494e-35
2.42583e-36
2.46367e-36
1.0715e-36
3.26518e-37
6.79566e-38
4.09267e-39
-4.39674e-39
-2.6778e-39
-9.67833e-40
-2.45259e-40
-3.46559e-41
5.2962e-42
5.93214e-42
2.515e-42
7.20978e-43
1.30952e-43
-4.93748e-46
-1.21894e-44
-6.00919e-45
-1.87106e-45
-3.81319e-46
-1.9586e-47
2.44171e-47
1.36265e-47
4.45161e-48
9.52135e-49
6.84104e-50
-5.02111e-50
-2.99176e-50
-9.89433e-51
-2.11521e-51
-1.51035e-52
1.09406e-52
6.41077e-53
2.06804e-53
4.22109e-54
2.21875e-55
-2.50137e-55
-1.33567e-55
-4.05214e-56
-7.49352e-57
-8.18468e-59
5.76117e-58
2.67104e-58
7.35519e-59
1.14203e-59
-8.14641e-61
-1.27921e-60
-5.032e-61
-1.20978e-61
-1.34881e-62
3.62183e-63
2.64816e-63
8.72835e-64
1.73248e-64
7.2962e-66
-1.02649e-65
-4.98707e-66
-1.35318e-66
-1.97441e-67
1.89876e-68
2.30862e-68
8.35093e-69
1.78755e-69
1.25277e-70
-8.12852e-71
-4.33782e-71
-1.20576e-71
-1.80187e-72
1.4295e-73
1.91646e-73
6.85027e-74
1.41461e-74
8.08204e-76
-6.9594e-76
-3.41711e-76
-8.85593e-77
-1.13083e-77
1.772e-78
1.51862e-78
4.83068e-79
8.56286e-80
5.47465e-83
-5.99805e-81
-2.38053e-81
-5.21679e-82
-3.98383e-83
2.05352e-83
1.07964e-83
2.80127e-84
3.494e-85
-5.60636e-86
-4.55407e-86
-1.37695e-86
-2.21441e-87
8.00813e-89
1.79756e-88
6.32428e-89
1.20485e-89
3.56341e-91
-6.65984e-91
-2.75021e-91
-5.95478e-92
-4.24869e-93
2.31753e-93
1.14331e-93
2.74583e-94
2.76351e-95
-7.56219e-96
-4.57888e-96
-1.19965e-96
-1.46711e-97
2.3043e-98
1.77848e-98
5.01615e-99
6.95322e-100
-6.5133e-101
-6.73961e-101
-2.02145e-101
-3.04777e-102
1.67354e-103
2.57503e-103
5.80609e-104
)
;

boundaryField
{
    sides
    {
        type            zeroGradient;
    }
    empty
    {
        type            empty;
    }
}


// ************************************************************************* //
