/*--------------------------------*- C++ -*----------------------------------*\
| =========                 |                                                 |
| \\      /  F ield         | OpenFOAM: The Open Source CFD Toolbox           |
|  \\    /   O peration     | Version:  2312                                  |
|   \\  /    A nd           | Website:  www.openfoam.com                      |
|    \\/     M anipulation  |                                                 |
\*---------------------------------------------------------------------------*/
FoamFile
{
    version     2.0;
    format      ascii;
    arch        "LSB;label=32;scalar=64";
    class       volScalarField;
    location    "2";
    object      T;
}
// * * * * * * * * * * * * * * * * * * * * * * * * * * * * * * * * * * * * * //

dimensions      [0 0 0 1 0 0 0];

internalField   nonuniform List<scalar> 
1000
(
0
0
0
0
0
0
0
0
0
0
0
0
0
0
0
0
0
0
0
0
0
0
0
0
0
0
0
0
0
0
0
0
0
0
0
0
0
0
0
0
0
0
0
0
0
0
0
0
0
0
0
0
0
0
0
0
0
0
0
0
0
0
0
0
0
0
0
0
0
0
0
0
0
0
0
0
0
0
0
0
0
0
0
0
0
0
0
0
0
0
0
0
0
0
0
0
0
0
0
0
0
0
0
0
0
0
0
0
0
0
0
0
0
0
0
0
0
0
0
0
0
0
0
0
0
0
0
0
0
0
0
0
0
0
0
0
0
0
0
0
0
0
0
0
0
0
0
0
0
0
0
0
0
0
0
0
0
0
0
0
0
0
0
0
0
0
0
0
0
0
0
0
0
0
0
0
0
0
0
0
0
0
0
0
0
0
0
0
0
0
0
0
0
0
0
0
0
0
0
0
0
0
0
0
0
0
0
0
0
0
0
0
0
0
0
0
0
0
0
0
0
0
0
0
0
0
0
0
0
0
0
0
0
0
0
0
0
0
0
0
0
0
0
0
0
0
0
0
0
0
0
0
0
0
0
0
0
0
0
0
1.18576e-322
1.91747e-320
2.37536e-318
2.92323e-316
3.57986e-314
4.36253e-312
5.29017e-310
6.38331e-308
7.664e-306
9.15555e-304
1.08823e-301
1.28691e-299
1.51412e-297
1.7723e-295
2.06379e-293
2.39076e-291
2.75506e-289
3.15819e-287
3.60116e-285
4.08441e-283
4.60771e-281
5.17004e-279
5.76955e-277
6.40344e-275
7.06794e-273
7.75827e-271
8.46865e-269
9.19232e-267
9.92159e-265
1.0648e-262
1.13622e-260
1.20547e-258
1.27154e-256
1.33341e-254
1.39009e-252
1.44062e-250
1.48411e-248
1.51975e-246
1.54687e-244
1.56491e-242
1.57348e-240
1.57235e-238
1.56148e-236
1.54099e-234
1.51121e-232
1.47261e-230
1.42584e-228
1.37167e-226
1.31101e-224
1.24486e-222
1.17427e-220
1.10034e-218
1.02419e-216
9.46891e-215
8.69493e-213
7.92966e-211
7.18196e-209
6.45962e-207
5.7693e-205
5.11642e-203
4.50518e-201
3.93854e-199
3.41829e-197
2.94517e-195
2.51889e-193
2.13837e-191
1.80177e-189
1.50673e-187
1.25043e-185
1.02978e-183
8.41519e-182
6.82314e-180
5.4888e-178
4.38038e-176
3.46783e-174
2.72321e-172
2.12106e-170
1.63848e-168
1.25518e-166
9.53503e-165
7.18207e-163
5.36358e-161
3.97102e-159
2.91444e-157
2.1202e-155
1.52872e-153
1.09238e-151
7.73518e-150
5.42726e-148
3.7728e-146
2.59823e-144
1.77247e-142
1.19764e-140
8.01444e-139
5.31101e-137
3.4849e-135
2.26395e-133
1.45599e-131
9.26867e-130
5.83972e-128
3.64109e-126
2.24638e-124
1.37118e-122
8.27964e-121
4.94512e-119
2.92102e-117
1.70618e-115
9.85348e-114
5.62557e-112
3.17463e-110
1.77053e-108
9.75742e-107
5.31273e-105
2.85748e-103
1.51796e-101
7.96296e-100
4.12433e-98
2.10872e-96
1.06412e-94
5.29899e-93
2.60338e-91
1.26165e-89
6.0299e-88
2.84158e-86
1.32007e-84
6.04395e-83
2.72669e-81
1.21182e-79
5.30424e-78
2.28603e-76
9.69842e-75
4.04917e-73
1.66325e-71
6.71967e-70
2.6694e-68
1.04236e-66
3.99969e-65
1.50763e-63
5.58053e-62
2.02775e-60
7.23027e-59
2.52888e-57
8.67287e-56
2.91528e-54
9.60047e-53
3.09604e-51
9.77276e-50
3.01796e-48
9.11323e-47
2.68944e-45
7.75245e-44
2.18146e-42
5.98854e-41
1.60279e-39
4.17942e-38
1.06103e-36
2.62049e-35
6.29118e-34
1.46691e-32
3.31901e-31
7.27997e-30
1.54641e-28
3.17774e-27
6.30969e-26
1.20907e-24
2.23292e-23
3.96865e-22
6.7778e-21
1.1104e-19
1.74191e-18
2.61133e-17
3.73288e-16
5.07616e-15
6.5493e-14
7.99382e-13
9.20036e-12
9.94869e-11
1.0066e-09
9.48542e-09
8.28043e-08
6.65548e-07
4.89023e-06
3.25723e-05
0.00019471
0.00103208
0.00478019
0.0189995
0.0633794
0.172751
0.373522
0.626478
0.827249
0.936621
0.981001
0.99522
0.998968
0.999805
0.999967
0.999995
0.999999
1
1
1
1
1
1
1
1
1
1
1
1
1
1
1
1
1
1
1
1
1
1
1
1
1
1
1
1
1
1
1
1
1
1
1
1
1
1
1
1
1
1
1
1
1
1
1
1
1
1
1
1
1
1
1
1
1
1
1
1
1
1
1
1
1
1
1
1
1
1
1
1
1
1
1
1
1
1
1
1
0.999999
0.999995
0.999967
0.999805
0.998968
0.99522
0.981001
0.936621
0.827249
0.626478
0.373522
0.172751
0.0633794
0.0189995
0.00478019
0.00103208
0.00019471
3.25723e-05
4.89023e-06
6.65548e-07
8.28043e-08
9.48542e-09
1.0066e-09
9.94869e-11
9.20036e-12
7.99382e-13
6.5493e-14
5.07616e-15
3.73288e-16
2.61133e-17
1.74191e-18
1.1104e-19
6.7778e-21
3.96865e-22
2.23292e-23
1.20907e-24
6.30969e-26
3.17774e-27
1.54641e-28
7.27997e-30
3.31901e-31
1.46691e-32
6.29118e-34
2.62049e-35
1.06103e-36
4.17942e-38
1.60279e-39
5.98854e-41
2.18146e-42
7.75245e-44
2.68944e-45
9.11323e-47
3.01796e-48
9.77276e-50
3.09604e-51
9.60047e-53
2.91528e-54
8.67287e-56
2.52888e-57
7.23027e-59
2.02775e-60
5.58053e-62
1.50763e-63
3.99969e-65
1.04236e-66
2.6694e-68
6.71967e-70
1.66325e-71
4.04917e-73
9.69842e-75
2.28603e-76
5.30424e-78
1.21182e-79
2.72669e-81
6.04395e-83
1.32007e-84
2.84158e-86
6.0299e-88
1.26165e-89
2.60338e-91
5.29899e-93
1.06412e-94
2.10872e-96
4.12433e-98
7.96296e-100
1.51796e-101
2.85748e-103
5.31273e-105
9.75742e-107
1.77053e-108
3.17463e-110
5.62557e-112
9.85348e-114
1.70618e-115
2.92102e-117
4.94512e-119
8.27964e-121
1.37118e-122
2.24638e-124
3.64109e-126
5.83972e-128
9.26867e-130
1.45599e-131
2.26395e-133
3.4849e-135
5.31101e-137
8.01444e-139
1.19764e-140
1.77247e-142
2.59823e-144
3.7728e-146
5.42726e-148
7.73518e-150
1.09238e-151
1.52872e-153
2.1202e-155
2.91444e-157
3.97102e-159
5.36358e-161
7.18207e-163
9.53503e-165
1.25518e-166
1.63848e-168
2.12106e-170
2.72321e-172
3.46783e-174
4.38038e-176
5.4888e-178
6.82314e-180
8.41519e-182
1.02978e-183
1.25043e-185
1.50673e-187
1.80177e-189
2.13837e-191
2.51889e-193
2.94517e-195
3.41829e-197
3.93854e-199
4.50518e-201
5.11642e-203
5.7693e-205
6.45962e-207
7.18196e-209
7.92966e-211
8.69493e-213
9.46891e-215
1.02419e-216
1.10034e-218
1.17427e-220
1.24486e-222
1.31101e-224
1.37167e-226
1.42584e-228
1.47261e-230
1.51121e-232
1.54099e-234
1.56148e-236
1.57235e-238
1.57348e-240
1.56491e-242
1.54687e-244
1.51975e-246
1.48411e-248
1.44062e-250
1.39009e-252
1.33341e-254
1.27154e-256
1.20547e-258
1.13622e-260
1.0648e-262
9.92159e-265
9.19232e-267
8.46865e-269
7.75827e-271
7.06794e-273
6.40344e-275
5.76955e-277
5.17004e-279
4.60771e-281
4.08441e-283
3.60116e-285
3.15819e-287
2.75506e-289
2.39076e-291
2.06379e-293
1.7723e-295
1.51412e-297
1.28691e-299
1.08823e-301
9.15555e-304
7.664e-306
6.38331e-308
5.29017e-310
4.36253e-312
3.57986e-314
2.92323e-316
2.37536e-318
1.91747e-320
1.18576e-322
0
0
0
0
0
0
0
0
0
0
0
0
0
0
0
0
0
0
0
0
0
0
0
0
0
0
0
0
0
0
0
0
0
0
0
0
0
0
0
0
0
0
0
0
0
0
0
0
0
0
0
0
0
0
0
0
0
0
0
0
0
0
0
0
0
0
0
0
0
0
0
0
0
0
0
0
0
0
0
0
0
0
0
0
0
0
0
0
0
0
0
0
0
0
0
0
0
0
0
0
0
0
0
0
0
0
0
0
0
0
0
0
0
0
0
0
0
0
0
0
0
0
0
0
0
0
0
0
0
0
0
0
0
0
0
0
0
0
0
0
0
0
0
0
0
0
0
0
0
0
0
0
0
0
0
0
0
0
0
0
0
0
0
0
0
0
0
0
0
0
0
0
0
0
0
0
0
0
0
0
0
0
0
0
0
0
0
0
0
0
0
0
0
0
0
0
0
0
0
0
0
0
0
0
0
0
0
0
0
0
0
0
0
0
0
0
0
0
0
0
0
0
0
0
0
0
0
0
0
0
0
0
0
0
0
0
0
0
0
0
0
0
0
0
0
0
0
0
0
0
0
0
0
0
0
0
0
0
0
0
)
;

boundaryField
{
    sides
    {
        type            zeroGradient;
    }
    empty
    {
        type            empty;
    }
}


// ************************************************************************* //
