/*--------------------------------*- C++ -*----------------------------------*\
| =========                 |                                                 |
| \\      /  F ield         | OpenFOAM: The Open Source CFD Toolbox           |
|  \\    /   O peration     | Version:  2312                                  |
|   \\  /    A nd           | Website:  www.openfoam.com                      |
|    \\/     M anipulation  |                                                 |
\*---------------------------------------------------------------------------*/
FoamFile
{
    version     2.0;
    format      ascii;
    arch        "LSB;label=32;scalar=64";
    class       volScalarField;
    location    "1";
    object      T;
}
// * * * * * * * * * * * * * * * * * * * * * * * * * * * * * * * * * * * * * //

dimensions      [0 0 0 1 0 0 0];

internalField   nonuniform List<scalar> 
1000
(
0
0
0
0
0
0
0
0
0
0
0
0
0
0
0
0
0
0
0
0
0
0
0
0
0
0
0
0
0
0
0
0
0
0
0
0
0
0
0
0
0
0
0
0
0
0
0
0
0
0
0
0
0
0
0
0
0
0
0
0
0
0
0
0
0
0
0
0
0
0
0
0
0
0
0
0
0
0
0
0
0
0
0
0
0
0
0
0
0
0
0
0
0
0
0
0
0
0
0
0
0
0
0
0
0
0
0
0
0
0
0
0
0
0
0
0
0
0
0
0
0
0
0
0
0
0
0
0
0
-1.38338e-322
3.81913e-321
-1.05844e-319
2.92419e-318
-8.04033e-317
2.2004e-315
-5.99354e-314
1.62486e-312
-4.38424e-311
1.17738e-309
-3.14685e-308
8.37088e-307
-2.21614e-305
5.83915e-304
-1.53118e-302
3.99594e-301
-1.03783e-299
2.68254e-298
-6.90035e-297
1.76644e-295
-4.5001e-294
1.14088e-292
-2.87837e-291
7.22665e-290
-1.80554e-288
4.48904e-287
-1.11063e-285
2.73435e-284
-6.69882e-283
1.63305e-281
-3.96145e-280
9.56215e-279
-2.29667e-277
5.48885e-276
-1.30526e-274
3.08844e-273
-7.27118e-272
1.70329e-270
-3.96995e-269
9.20639e-268
-2.1242e-266
4.8764e-265
-1.11377e-263
2.53092e-262
-5.72192e-261
1.28701e-259
-2.87999e-258
6.41157e-257
-1.42003e-255
3.12885e-254
-6.85834e-253
1.49553e-251
-3.2442e-250
7.00085e-249
-1.50286e-247
3.20924e-246
-6.81711e-245
1.44047e-243
-3.02766e-242
6.32999e-241
-1.3164e-239
2.72303e-238
-5.60262e-237
1.14657e-235
-2.33382e-234
4.72488e-233
-9.51398e-232
1.90535e-230
-3.79509e-229
7.51789e-228
-1.48112e-226
2.90201e-225
-5.65475e-224
1.09579e-222
-2.1117e-221
4.04689e-220
-7.71237e-219
1.46158e-217
-2.75437e-216
5.16147e-215
-9.61771e-214
1.782e-212
-3.28303e-211
6.01402e-210
-1.09539e-208
1.98372e-207
-3.57181e-206
6.39419e-205
-1.13806e-203
2.0138e-202
-3.54267e-201
6.19585e-200
-1.07725e-198
1.86196e-197
-3.19928e-196
5.46454e-195
-9.27821e-194
1.56594e-192
-2.6271e-191
4.38086e-190
-7.2613e-189
1.19627e-187
-1.95884e-186
3.18793e-185
-5.15643e-184
8.28919e-183
-1.3243e-181
2.10261e-180
-3.31759e-179
5.20193e-178
-8.10539e-177
1.25499e-175
-1.93087e-174
2.95188e-173
-4.48402e-172
6.76781e-171
-1.01491e-169
1.51215e-168
-2.23839e-167
3.29185e-166
-4.80944e-165
6.98052e-164
-1.00648e-162
1.44157e-161
-2.051e-160
2.89855e-159
-4.06883e-158
5.67304e-157
-7.85612e-156
1.08051e-154
-1.47595e-153
2.00222e-152
-2.69738e-151
3.60865e-150
-4.79409e-149
6.32426e-148
-8.28401e-147
1.07742e-145
-1.3913e-144
1.78377e-143
-2.27049e-142
2.86911e-141
-3.59918e-140
4.48202e-139
-5.54036e-138
6.79798e-137
-8.27906e-136
1.00074e-134
-1.20057e-133
1.42941e-132
-1.68892e-131
1.98029e-130
-2.30405e-129
2.65999e-128
-3.04701e-127
3.46299e-126
-3.90474e-125
4.36791e-124
-4.84701e-123
5.33547e-122
-5.82566e-121
6.30912e-120
-6.77673e-119
7.21897e-118
-7.62624e-117
7.98913e-116
-8.29886e-115
8.54752e-114
-8.7285e-113
8.83667e-112
-8.86872e-111
8.82325e-110
-8.70086e-109
8.5042e-108
-8.23783e-107
7.90804e-106
-7.52267e-105
7.09071e-104
-6.62201e-103
6.12689e-102
-5.61572e-101
5.09861e-100
-4.58505e-99
4.08363e-98
-3.60181e-97
3.14579e-96
-2.72041e-95
2.32914e-94
-1.97411e-93
1.65622e-92
-1.3753e-91
1.13022e-90
-9.19107e-90
7.39545e-89
-5.8872e-88
4.63607e-87
-3.61107e-86
2.78174e-85
-2.11903e-84
1.59603e-83
-1.18843e-82
8.74729e-82
-6.36327e-81
4.57437e-80
-3.24909e-79
2.27984e-78
-1.58011e-77
1.08153e-76
-7.30949e-76
4.87698e-75
-3.21181e-74
2.08737e-73
-1.33848e-72
8.46631e-72
-5.28146e-71
3.24854e-70
-1.96968e-69
1.17696e-68
-6.92909e-68
4.01805e-67
-2.29431e-66
1.2896e-65
-7.13305e-65
3.88121e-64
-2.07668e-63
1.09223e-62
-5.64438e-62
2.86472e-61
-1.42727e-60
6.97681e-60
-3.34424e-59
1.57094e-58
-7.22699e-58
3.25367e-57
-1.43238e-56
6.16065e-56
-2.58609e-55
1.05834e-54
-4.21704e-54
1.63364e-53
-6.14221e-53
2.23681e-52
-7.8705e-52
2.66767e-51
-8.6767e-51
2.69454e-50
-7.93475e-50
2.19355e-49
-5.60355e-49
1.28607e-48
-2.49547e-48
3.37574e-48
6.25778e-49
-2.51634e-47
1.10879e-46
-3.34367e-46
7.58986e-46
-1.1396e-45
-1.90695e-47
7.43748e-45
-3.08412e-44
7.8656e-44
-1.19939e-43
-2.52992e-44
8.5895e-43
-3.12871e-42
6.36438e-42
-3.90219e-42
-2.55977e-41
1.15504e-40
-2.45247e-40
1.28059e-40
1.07836e-39
-4.34453e-39
7.46914e-39
2.7586e-39
-5.38435e-38
1.4704e-37
-1.13622e-37
-5.50356e-37
2.24477e-36
-2.97295e-36
-5.21421e-36
3.13759e-35
-5.06262e-35
-5.57317e-35
4.32355e-34
-7.13732e-34
-8.32858e-34
6.00314e-33
-8.48775e-33
-1.60695e-32
8.17707e-32
-7.42488e-32
-3.1587e-31
1.01616e-30
-9.67952e-32
-5.48916e-30
9.92461e-30
1.39585e-29
-7.67304e-29
4.05968e-29
3.58911e-28
-7.23775e-28
-9.68748e-28
5.13471e-27
-1.07354e-27
-2.61365e-26
3.44069e-26
1.02401e-25
-2.81101e-25
-2.78262e-25
1.70363e-24
8.46717e-26
-8.85853e-24
5.57295e-24
4.18565e-23
-5.17791e-23
-1.8611e-22
3.43086e-22
8.02363e-22
-1.97179e-21
-3.4627e-21
1.04568e-20
1.5478e-20
-5.25304e-20
-7.36663e-20
2.5232e-19
3.76039e-19
-1.15511e-18
-2.02234e-18
4.9536e-18
1.10894e-17
-1.90966e-17
-5.98783e-17
5.9438e-17
3.08225e-16
-8.77602e-17
-1.46195e-15
-6.43154e-16
6.08964e-15
7.89786e-15
-2.01462e-14
-5.37834e-14
3.52243e-14
2.71811e-13
1.46748e-13
-1.00243e-12
-1.84447e-12
1.92931e-12
1.03514e-11
6.15064e-12
-3.43807e-11
-7.65706e-11
2.35193e-11
3.50285e-10
4.81924e-10
-5.90044e-10
-2.96158e-09
-3.01725e-09
6.03623e-09
2.33431e-08
2.25648e-08
-4.40874e-08
-1.77422e-07
-2.10659e-07
2.05787e-07
1.2415e-06
2.0767e-06
3.19787e-07
-6.7424e-06
-1.75828e-05
-1.98643e-05
1.12597e-05
9.82131e-05
0.000220798
0.000260425
-2.8736e-05
-0.000947279
-0.00259995
-0.00444425
-0.00472897
-4.76309e-05
0.014689
0.0456086
0.098519
0.177107
0.281248
0.406083
0.542338
0.677968
0.800695
0.90069
0.972543
1.01597
1.03513
1.03692
1.02894
1.01772
1.00764
1.0008
0.997437
0.99671
0.997427
0.998575
0.99954
1.0001
1.00029
1.00026
1.00015
1.00005
0.999993
0.999973
0.999977
0.999988
0.999997
1
1
1
1
1
1
1
1
1
1
1
1
1
1
1
1
1
1
1
1
1
1
1
1
1
1
1
1
1
1
1
1
1
1
1
1
1
1
1
1
1
1
1
1
1
1
1
1
1
1
1
0.999999
0.999998
1
1.00001
1.00002
1.00002
0.999989
0.999902
0.999779
0.99974
1.00003
1.00095
1.0026
1.00444
1.00473
1.00005
0.985311
0.954391
0.901481
0.822893
0.718752
0.593917
0.457662
0.322032
0.199305
0.0993101
0.0274566
-0.0159693
-0.0351257
-0.0369192
-0.0289442
-0.0177154
-0.00763501
-0.000795917
0.00256282
0.00328951
0.00257267
0.00142523
0.00046015
-0.000100558
-0.000293966
-0.000264411
-0.000153928
-5.21743e-05
7.0821e-06
2.65398e-05
2.29573e-05
1.21507e-05
3.1546e-06
-1.37743e-06
-2.35748e-06
-1.65284e-06
-6.73516e-07
-4.04255e-08
1.86713e-07
1.73423e-07
8.72636e-08
1.82976e-08
-1.20896e-08
-1.55528e-08
-8.92544e-09
-2.47808e-09
6.86468e-10
1.26611e-09
7.84002e-10
2.39527e-10
-3.99555e-11
-9.71788e-11
-6.13786e-11
-1.86935e-11
2.95889e-12
7.14992e-12
4.34329e-12
1.211e-12
-2.74358e-13
-5.02213e-13
-2.77374e-13
-6.36864e-14
2.58129e-14
3.30651e-14
1.5759e-14
2.43367e-15
-2.17476e-15
-1.99091e-15
-7.73424e-16
-3.17585e-17
1.58003e-16
1.06672e-16
3.08612e-17
-4.78886e-18
-9.79518e-18
-4.91815e-18
-8.38987e-19
5.59612e-19
5.13275e-19
1.84654e-19
2.70795e-22
-3.84122e-20
-2.2277e-20
-4.90443e-21
1.74111e-21
1.97654e-21
7.623e-22
3.27192e-23
-1.32154e-22
-7.9163e-23
-1.76471e-23
5.65519e-24
6.42204e-24
2.36995e-24
5.38818e-26
-4.13858e-25
-2.27463e-25
-4.26752e-26
1.93674e-26
1.77131e-26
5.59148e-27
-3.15e-28
-1.15004e-27
-5.22804e-28
-6.04106e-29
6.06457e-29
4.03403e-29
9.42866e-30
-2.24865e-30
-2.67994e-30
-9.15543e-31
6.76673e-33
1.54411e-31
7.20495e-32
8.78747e-33
-7.54255e-33
-4.9258e-33
-1.07725e-33
2.85144e-34
3.00383e-34
9.2206e-35
-4.94558e-36
-1.64791e-35
-6.62702e-36
-4.40168e-37
8.0957e-37
4.23451e-37
6.46129e-38
-3.47984e-38
-2.46667e-38
-5.54346e-39
1.2199e-39
1.32643e-39
3.88387e-40
-2.58019e-41
-6.6236e-41
-2.41077e-41
-7.25118e-43
3.07484e-42
1.37095e-42
1.37971e-43
-1.32186e-43
-7.26847e-44
-1.14712e-44
5.20276e-45
3.63031e-45
7.54635e-46
-1.82521e-46
-1.71979e-46
-4.37581e-47
5.31924e-48
7.76382e-48
2.32926e-48
-9.69999e-50
-3.35128e-49
-1.16145e-49
-1.95128e-51
1.38661e-50
5.4899e-51
3.42633e-52
-5.50917e-52
-2.47898e-52
-2.47115e-53
2.1046e-53
1.07526e-53
1.41043e-54
-7.73713e-55
-4.49877e-55
-7.12621e-56
2.73863e-56
1.82152e-56
3.32127e-57
-9.33486e-58
-7.1567e-58
-1.45679e-58
3.06379e-59
2.73476e-59
6.08285e-60
-9.67955e-61
-1.01839e-60
-2.43547e-61
2.94262e-62
3.70213e-62
9.3964e-63
-8.6067e-64
-1.3158e-63
-3.50564e-64
2.42365e-65
4.57837e-65
1.26803e-65
-6.58961e-67
-1.5614e-66
-4.45556e-67
1.74262e-68
5.22429e-68
1.52312e-68
-4.55419e-70
-1.7163e-69
-5.07127e-70
1.21066e-71
5.53968e-71
1.64597e-71
-3.40858e-73
-1.75747e-72
-5.21095e-73
1.05214e-74
5.48174e-74
1.60979e-74
-3.57137e-76
-1.68119e-75
-4.85369e-76
1.29236e-77
5.06942e-77
1.42835e-77
-4.78721e-79
-1.50265e-78
-4.10193e-79
1.7608e-80
4.37703e-80
1.14918e-80
-6.32198e-82
-1.25241e-81
-3.13901e-82
2.19849e-83
3.51838e-83
8.35348e-84
-7.3847e-85
-9.69914e-85
-2.16344e-85
2.39518e-86
2.62212e-86
5.44495e-87
-7.50679e-88
-6.94738e-88
-1.32912e-88
2.27591e-89
1.80276e-89
3.13817e-90
-6.68243e-91
-4.57808e-91
-7.13931e-92
1.90218e-92
1.13687e-92
1.55603e-93
-5.25409e-94
-2.75835e-94
-3.21977e-95
1.4093e-95
6.53239e-96
6.22728e-97
-3.67303e-97
-1.50833e-97
-1.09171e-98
9.30579e-99
3.39121e-99
1.609e-100
-2.29255e-100
-7.4122e-101
-1.47559e-102
5.49274e-102
1.5718e-102
-1.75374e-104
-1.27987e-103
-3.22512e-104
1.52045e-105
2.89993e-105
6.3799e-106
-5.7583e-107
-6.38733e-107
-1.21037e-107
1.74524e-108
1.36692e-108
2.18445e-109
-4.71054e-110
-2.84011e-110
-3.70016e-111
1.17709e-111
5.72327e-112
5.73449e-113
-2.7736e-113
-1.11698e-113
-7.67227e-115
6.22437e-115
2.10699e-115
7.29755e-117
-1.33812e-116
-3.83059e-117
1.36277e-119
2.7654e-118
6.68439e-119
-3.23221e-120
-5.50516e-120
-1.11256e-120
1.15616e-121
1.05673e-121
1.74833e-122
-3.11314e-123
-1.95616e-123
-2.5474e-124
7.32681e-125
3.48988e-125
3.31558e-126
-1.58209e-126
-5.99118e-127
-3.49099e-128
3.20277e-128
9.87054e-129
1.78589e-130
-6.14671e-130
-1.55381e-130
4.40267e-132
1.12525e-131
2.32048e-132
-1.9894e-133
-1.9714e-133
-3.24763e-134
5.29976e-135
3.31001e-135
4.16217e-136
-1.17151e-136
-5.32546e-137
-4.63839e-138
2.32774e-138
8.19664e-139
3.8205e-140
-4.28932e-140
-1.20261e-140
-1.80862e-143
7.44054e-142
1.67129e-142
-8.77679e-144
-1.22447e-143
-2.17511e-144
2.68327e-145
1.91903e-145
2.59423e-146
-5.93084e-147
-2.86769e-147
-2.70256e-148
1.13139e-148
4.08189e-149
2.1256e-150
-1.96577e-150
-5.51518e-151
-3.00546e-153
3.18314e-152
7.02393e-153
-3.54928e-154
-4.85774e-154
-8.32096e-155
1.0408e-155
7.02434e-156
8.92857e-157
-2.14073e-157
-9.64122e-158
-8.14216e-159
3.76927e-159
1.25454e-159
5.02021e-161
-6.01983e-161
-1.54058e-161
1.58057e-163
8.93297e-163
1.76839e-163
-1.29069e-164
-1.24574e-164
-1.86152e-165
3.01341e-166
1.64085e-166
1.72272e-167
-5.4115e-168
-2.04322e-168
-1.24066e-169
8.50675e-170
2.39848e-170
3.02751e-172
-1.22243e-171
-2.63404e-172
1.18634e-173
1.63631e-173
2.66352e-174
-3.28157e-175
-2.05787e-175
-2.39553e-176
5.97311e-177
2.43854e-177
1.74109e-178
-8.90791e-179
)
;

boundaryField
{
    sides
    {
        type            zeroGradient;
    }
    empty
    {
        type            empty;
    }
}


// ************************************************************************* //
