/*--------------------------------*- C++ -*----------------------------------*\
| =========                 |                                                 |
| \\      /  F ield         | OpenFOAM: The Open Source CFD Toolbox           |
|  \\    /   O peration     | Version:  2312                                  |
|   \\  /    A nd           | Website:  www.openfoam.com                      |
|    \\/     M anipulation  |                                                 |
\*---------------------------------------------------------------------------*/
FoamFile
{
    version     2.0;
    format      ascii;
    arch        "LSB;label=32;scalar=64";
    class       volScalarField;
    location    "2.5";
    object      T;
}
// * * * * * * * * * * * * * * * * * * * * * * * * * * * * * * * * * * * * * //

dimensions      [0 0 0 1 0 0 0];

internalField   nonuniform List<scalar> 
1000
(
0
0
0
0
0
0
0
0
0
0
0
0
0
0
0
0
0
0
0
0
0
0
0
0
0
0
0
0
0
0
0
0
0
0
0
0
0
0
0
0
0
0
0
0
0
0
0
0
0
0
0
0
0
0
0
0
0
0
0
0
0
0
0
0
0
0
0
0
0
0
0
0
0
0
0
0
0
0
0
0
0
0
0
0
0
0
0
0
0
0
0
0
0
0
0
0
0
0
0
0
0
0
0
0
0
0
0
0
0
0
0
0
0
0
0
0
0
0
0
0
0
0
0
0
0
0
0
0
0
0
0
0
0
0
0
0
0
0
0
0
0
0
0
0
0
0
0
0
0
0
0
0
0
0
0
0
0
0
0
0
0
0
0
0
0
0
0
0
0
0
0
0
0
-4.94066e-324
2.96439e-323
-4.94066e-324
2.96439e-323
-4.94066e-324
2.96439e-323
-4.94066e-324
2.96439e-323
-4.94066e-324
2.96439e-323
-4.94066e-324
2.96439e-323
-4.94066e-324
2.96439e-323
-4.94066e-324
2.96439e-323
-4.94066e-324
2.96439e-323
-4.94066e-324
2.96439e-323
-4.94066e-324
2.96439e-323
-4.94066e-324
2.96439e-323
-4.94066e-324
2.96439e-323
-4.94066e-324
2.96439e-323
-4.94066e-324
2.96439e-323
-4.94066e-324
2.96439e-323
-4.94066e-324
2.96439e-323
-4.94066e-324
2.96439e-323
-4.94066e-324
2.96439e-323
-4.94066e-324
2.96439e-323
-4.94066e-324
2.96439e-323
-4.94066e-324
2.96439e-323
-4.94066e-324
2.96439e-323
-4.94066e-324
2.96439e-323
-4.94066e-324
2.96439e-323
-4.94066e-324
2.96439e-323
-4.94066e-324
2.96439e-323
-4.94066e-324
2.96439e-323
-4.94066e-324
2.96439e-323
-4.94066e-324
2.96439e-323
-4.94066e-324
2.96439e-323
-4.94066e-324
2.96439e-323
-4.94066e-324
2.96439e-323
-4.94066e-324
2.96439e-323
-4.94066e-324
2.96439e-323
-6.42285e-323
1.02272e-321
-1.27716e-320
1.6733e-319
-2.11822e-318
2.76855e-317
-3.50627e-316
4.5821e-315
-5.80312e-314
7.58372e-313
-9.60565e-312
1.25487e-310
-1.59061e-309
2.07514e-308
-2.63626e-307
3.42778e-306
-4.37463e-305
5.65595e-304
-7.26461e-303
9.33002e-302
-1.20609e-300
1.53998e-299
-2.00075e-298
2.54408e-297
-3.31614e-296
4.20627e-295
-5.49232e-294
6.95891e-293
-9.09208e-292
1.15167e-290
-1.50488e-289
1.90603e-288
-2.49088e-287
3.15451e-286
-4.12259e-285
5.22163e-284
-6.82141e-283
8.64677e-282
-1.12802e-280
1.43311e-279
-1.86332e-278
2.37807e-277
-3.07459e-276
3.94902e-275
-5.07187e-274
6.55625e-273
-8.37146e-272
1.0876e-270
-1.38297e-269
1.80266e-268
-2.28653e-267
2.98566e-266
-3.78283e-265
4.94256e-264
-6.26036e-263
8.18084e-262
-1.03608e-260
1.3541e-259
-1.71474e-258
2.24112e-257
-2.83834e-256
3.70858e-255
-4.69905e-254
6.13555e-253
-7.78201e-252
1.01464e-250
-1.28946e-249
1.67701e-248
-2.1375e-247
2.77128e-246
-3.54289e-245
4.58113e-244
-5.86966e-243
7.57599e-242
-9.72211e-241
1.25292e-239
-1.6105e-238
2.07171e-237
-2.66815e-236
3.42578e-235
-4.4192e-234
5.66741e-233
-7.31541e-232
9.38091e-231
-1.21045e-229
1.55315e-228
-2.00277e-227
2.57125e-226
-3.31424e-225
4.25606e-224
-5.48499e-223
7.04476e-222
-9.07725e-221
1.16609e-219
-1.50227e-218
1.92999e-217
-2.48655e-216
3.19407e-215
-4.11553e-214
5.2872e-213
-6.80918e-212
8.75599e-211
-1.1261e-209
1.45047e-208
-1.86223e-207
2.4023e-206
-3.08082e-205
3.97665e-204
-5.09951e-203
6.58e-202
-8.44301e-201
1.08871e-199
-1.39773e-198
1.80165e-197
-2.31355e-196
2.98173e-195
-3.82944e-194
4.93451e-193
-6.33882e-192
8.16638e-191
-1.04916e-189
1.35166e-188
-1.73636e-187
2.23713e-186
-2.87423e-185
3.70139e-184
-4.75984e-183
6.12147e-182
-7.8848e-181
1.01229e-179
-1.30597e-178
1.67452e-177
-2.16222e-176
2.7711e-175
-3.57866e-174
4.58685e-173
-5.92226e-172
7.59266e-171
-9.80074e-170
1.25678e-168
-1.62197e-167
2.08025e-166
-2.68435e-165
3.44316e-164
-4.44276e-163
5.69874e-162
-7.35329e-161
9.4319e-160
-1.21698e-158
1.56131e-157
-2.01358e-156
2.58547e-155
-3.33021e-154
4.283e-153
-5.5066e-152
7.09509e-151
-9.10713e-150
1.17495e-148
-1.5068e-147
1.94498e-146
-2.49378e-145
3.21898e-144
-4.12783e-143
5.32706e-142
-6.83296e-141
8.81526e-140
-1.13114e-138
1.4587e-137
-1.87254e-136
2.41378e-135
-3.09983e-134
3.99441e-133
-6.05457e-133
-1.678e-131
2.60823e-130
5.40274e-131
-1.21085e-128
9.78394e-128
4.02153e-127
-8.70507e-126
-5.5932e-126
4.1723e-124
-6.20459e-124
-1.94247e-122
8.79358e-122
8.53023e-121
-7.09556e-120
-3.87169e-119
4.35079e-118
1.72204e-117
-2.24012e-116
-8.98488e-116
1.00632e-114
4.5268e-114
-4.04304e-113
-2.7414e-112
1.30599e-111
1.4817e-110
-3.17132e-110
-8.60477e-109
8.0658e-110
4.67074e-107
4.62572e-107
-1.70208e-105
-4.81629e-105
3.67994e-104
3.55113e-103
-3.18365e-103
-2.21244e-101
-2.41042e-101
5.7599e-100
3.18976e-99
-5.43188e-99
-1.90377e-97
-1.81786e-97
4.67099e-96
3.11204e-95
-1.69008e-95
-1.61291e-93
-3.61716e-93
1.68691e-92
3.38119e-91
3.39419e-91
-5.68943e-90
-5.74943e-89
-3.31215e-89
1.34312e-87
9.55785e-87
2.67332e-87
-2.5757e-85
-1.68443e-84
-5.07015e-85
4.0795e-83
3.11576e-82
1.87703e-82
-5.34009e-81
-6.38355e-80
-7.03033e-80
5.30922e-79
9.32215e-78
1.94238e-77
-3.51059e-77
-1.01314e-75
-5.16737e-75
-2.4498e-75
7.6497e-74
9.94457e-73
1.92727e-72
-2.74231e-72
-7.72062e-71
-6.06928e-70
-6.34102e-70
3.38724e-69
5.59173e-68
2.68811e-67
1.84015e-67
-2.40552e-66
-3.177e-65
-3.18817e-64
-2.98616e-63
-2.70941e-62
-2.39317e-61
-2.08449e-60
-1.36038e-59
-1.82997e-59
2.68504e-59
5.46434e-58
5.00789e-57
4.04008e-56
3.11558e-55
2.34007e-54
1.72033e-53
1.23976e-52
8.7629e-52
6.07686e-51
4.1355e-50
2.76236e-49
1.81141e-48
1.16632e-47
7.37487e-47
4.58036e-46
2.79462e-45
1.67529e-44
9.86891e-44
5.71372e-43
3.25163e-42
1.81918e-41
1.00068e-40
5.41272e-40
2.87933e-39
1.5065e-38
7.75358e-38
3.92586e-37
1.95575e-36
9.58694e-36
4.62465e-35
2.19558e-34
1.02596e-33
4.71913e-33
2.13686e-32
9.52602e-32
4.18118e-31
1.80706e-30
7.69058e-30
3.22323e-29
1.33044e-28
5.40877e-28
2.16584e-27
8.54284e-27
3.31932e-26
1.27055e-25
4.7912e-25
1.78004e-24
6.5158e-24
2.35002e-23
8.35141e-23
2.92446e-22
1.00912e-21
3.43132e-21
1.14978e-20
3.79674e-20
1.23555e-19
3.96249e-19
1.2524e-18
3.9011e-18
1.19759e-17
3.62329e-17
1.08039e-16
3.17492e-16
9.19526e-16
2.62464e-15
7.38324e-15
2.04687e-14
5.59234e-14
1.50573e-13
3.99526e-13
1.04466e-12
2.69168e-12
6.83405e-12
1.70972e-11
4.21448e-11
1.02358e-10
2.44924e-10
5.77373e-10
1.34082e-09
3.06726e-09
6.91141e-09
1.53388e-08
3.35267e-08
7.21659e-08
1.52961e-07
3.19224e-07
6.559e-07
1.32667e-06
2.64136e-06
5.17583e-06
9.98091e-06
1.89383e-05
3.5354e-05
6.49228e-05
0.000117261
0.000208278
0.000363738
0.000624475
0.00105376
0.00174738
0.00284682
0.00455581
0.00715992
0.011048
0.0167334
0.0248714
0.0362672
0.0518688
0.0727368
0.0999846
0.134685
0.177742
0.229735
0.290752
0.360234
0.436862
0.51852
0.602367
0.685028
0.762907
0.832582
0.891221
0.93695
0.969088
0.988336
0.99712
0.999637
0.999983
1
1
1
1
1
1
1
1
1
1
1
1
1
1
1
1
1
1
1
1
1
1
1
1
1
1
1
1
1
1
1
1
1
1
1
1
1
1
1
1
1
1
1
1
1
1
1
1
1
1
1
1
1
1
1
1
1
1
0.999999
0.999999
0.999997
0.999995
0.99999
0.999981
0.999965
0.999935
0.999883
0.999791
0.999636
0.999375
0.998945
0.998251
0.99715
0.995439
0.992833
0.988942
0.983252
0.975108
0.963705
0.948094
0.927215
0.899955
0.86524
0.822169
0.770161
0.70913
0.639637
0.563002
0.481341
0.397497
0.314845
0.236979
0.167323
0.108704
0.0629963
0.0308778
0.0116466
0.00287401
0.000362386
1.70777e-05
2.17129e-07
5.57101e-10
2.27915e-13
2.027e-17
1.77787e-21
1.54246e-25
1.32813e-29
1.13868e-33
9.74883e-38
8.35246e-42
7.17018e-46
6.1699e-50
5.32064e-54
4.59556e-58
3.97291e-62
3.43569e-66
2.97077e-70
2.56786e-74
2.21866e-78
1.91621e-82
1.65452e-86
1.42834e-90
1.23301e-94
1.0644e-98
9.18894e-103
7.93332e-107
6.84967e-111
5.91428e-115
5.10674e-119
4.40947e-123
3.80737e-127
3.28744e-131
2.83846e-135
2.45076e-139
2.11598e-143
1.82692e-147
1.57734e-151
1.36184e-155
1.17579e-159
1.01515e-163
8.76456e-168
7.5671e-172
6.53322e-176
5.64059e-180
4.8699e-184
4.2045e-188
3.63001e-192
3.134e-196
2.70577e-200
2.33604e-204
2.01683e-208
1.74124e-212
1.5033e-216
1.29787e-220
1.12051e-224
9.67388e-229
8.35187e-233
7.21051e-237
6.2251e-241
5.37434e-245
4.63983e-249
4.0057e-253
3.45821e-257
2.98554e-261
2.57747e-265
2.22516e-269
1.92099e-273
1.6584e-277
1.43169e-281
1.23597e-285
1.067e-289
9.21121e-294
7.95184e-298
6.8646e-302
5.92598e-306
5.11568e-310
4.41614e-314
3.81221e-318
3.11261e-322
0
0
0
0
0
0
0
0
0
0
0
0
0
0
0
0
0
0
0
0
0
0
0
0
0
0
0
0
0
0
0
0
0
0
0
0
0
0
0
0
0
0
0
0
0
0
0
0
0
0
0
0
0
0
0
0
0
0
0
0
0
0
0
0
0
0
0
0
0
0
0
0
0
0
0
0
0
0
0
0
0
0
0
0
0
0
0
0
0
0
0
0
0
0
0
0
0
0
0
0
0
0
0
0
0
0
0
0
0
0
0
0
0
0
0
0
0
0
0
0
0
0
0
0
0
0
0
0
0
0
0
0
0
0
0
0
0
0
0
0
0
0
0
0
0
0
0
0
0
0
0
0
0
0
0
0
0
0
0
0
0
0
0
0
0
0
0
0
0
0
0
0
0
0
0
0
0
0
0
0
0
0
0
0
)
;

boundaryField
{
    sides
    {
        type            zeroGradient;
    }
    empty
    {
        type            empty;
    }
}


// ************************************************************************* //
