/*--------------------------------*- C++ -*----------------------------------*\
| =========                 |                                                 |
| \\      /  F ield         | OpenFOAM: The Open Source CFD Toolbox           |
|  \\    /   O peration     | Version:  2312                                  |
|   \\  /    A nd           | Website:  www.openfoam.com                      |
|    \\/     M anipulation  |                                                 |
\*---------------------------------------------------------------------------*/
FoamFile
{
    version     2.0;
    format      ascii;
    arch        "LSB;label=32;scalar=64";
    class       volScalarField;
    location    "2.3";
    object      T;
}
// * * * * * * * * * * * * * * * * * * * * * * * * * * * * * * * * * * * * * //

dimensions      [0 0 0 1 0 0 0];

internalField   nonuniform List<scalar> 
1000
(
1.54552e-61
-3.39587e-61
8.84772e-61
-2.29034e-60
5.91546e-60
-1.52485e-59
3.9227e-59
-1.00708e-58
2.58025e-58
-6.5974e-58
1.68343e-57
-4.28674e-57
1.08934e-56
-2.76249e-56
6.99098e-56
-1.76551e-55
4.44935e-55
-1.11895e-54
2.80809e-54
-7.03225e-54
1.75734e-53
-4.38223e-53
1.09045e-52
-2.70761e-52
6.7086e-52
-1.65859e-51
4.09173e-51
-1.00723e-50
2.47402e-50
-6.06354e-50
1.48284e-49
-3.61827e-49
8.80941e-49
-2.14006e-48
5.18722e-48
-1.2545e-47
3.0271e-47
-7.28791e-47
1.75063e-46
-4.19561e-46
1.00324e-45
-2.3934e-45
5.69672e-45
-1.35279e-44
3.20499e-44
-7.57545e-44
1.78638e-43
-4.2026e-43
9.8636e-43
-2.30953e-42
5.39482e-42
-1.25716e-41
2.92256e-41
-6.77778e-41
1.56805e-40
-3.61889e-40
8.33163e-40
-1.91346e-39
4.38368e-39
-1.0018e-38
2.28374e-38
-5.19311e-38
1.17793e-37
-2.66511e-37
6.01469e-37
-1.35396e-36
3.04013e-36
-6.80867e-36
1.52095e-35
-3.38877e-35
7.53077e-35
-1.66918e-34
3.68998e-34
-8.13582e-34
1.78907e-33
-3.92371e-33
8.5823e-33
-1.87216e-32
4.07294e-32
-8.83679e-32
1.91203e-31
-4.12578e-31
8.87807e-31
-1.90515e-30
4.07689e-30
-8.69991e-30
1.85131e-29
-3.92839e-29
8.31219e-29
-1.75378e-28
3.68969e-28
-7.74014e-28
1.619e-27
-3.37659e-27
7.02157e-27
-1.45582e-26
3.00951e-26
-6.20278e-26
1.2746e-25
-2.61127e-25
5.33349e-25
-1.08604e-24
2.20469e-24
-4.46178e-24
9.00162e-24
-1.81041e-23
3.62967e-23
-7.25414e-23
1.44519e-22
-2.86993e-22
5.68096e-22
-1.12089e-21
2.20441e-21
-4.32111e-21
8.44238e-21
-1.64396e-20
3.19056e-20
-6.17135e-20
1.18966e-19
-2.28551e-19
4.37576e-19
-8.34878e-19
1.58738e-18
-3.00758e-18
5.67833e-18
-1.06827e-17
2.00257e-17
-3.74049e-17
6.96135e-17
-1.29083e-16
2.38477e-16
-4.38945e-16
8.04916e-16
-1.47046e-15
2.67614e-15
-4.85177e-15
8.76229e-15
-1.57632e-14
2.82469e-14
-5.04175e-14
8.96313e-14
-1.58706e-13
2.79877e-13
-4.91549e-13
8.59757e-13
-1.49754e-12
2.59751e-12
-4.48641e-12
7.71587e-12
-1.32129e-11
2.25278e-11
-3.82413e-11
6.46277e-11
-1.08732e-10
1.8211e-10
-3.03614e-10
5.03854e-10
-8.32262e-10
1.36826e-09
-2.23874e-09
3.64542e-09
-5.9071e-09
9.52489e-09
-1.5282e-08
2.43955e-08
-3.87455e-08
6.12193e-08
-9.6224e-08
1.50445e-07
-2.33959e-07
3.61861e-07
-5.56607e-07
8.51392e-07
-1.29494e-06
1.95827e-06
-2.94417e-06
4.40029e-06
-6.53716e-06
9.65259e-06
-1.41645e-05
2.06548e-05
-2.99261e-05
4.30766e-05
-6.1595e-05
8.74793e-05
-0.000123386
0.000172809
-0.000240294
0.000331689
-0.000454422
0.000617807
-0.000833359
0.0011151
-0.0014798
0.00194719
-0.00253995
0.00328352
-0.00420562
0.0053354
-0.00670203
0.00833278
-0.0102505
0.0124705
-0.0149963
0.0178162
-0.0208978
0.0241842
-0.02759
0.0309985
-0.0342616
0.037201
-0.0396147
0.0412854
-0.0419951
0.0415428
-0.0397654
0.0365618
-0.0319159
0.0259168
-0.0187733
0.0108187
-0.00250241
-0.00563325
0.012992
-0.0189773
0.0230567
-0.0248311
0.0240988
-0.0209064
0.0155743
-0.0086889
0.00105677
0.00638049
-0.0126626
0.0169457
-0.0186363
0.0175017
-0.0137329
0.00794409
-0.00109693
-0.0056433
0.0111034
-0.0143169
0.014717
-0.0122666
0.00749038
-0.00139202
-0.00473697
0.00958482
-0.0121092
0.0117834
-0.00873603
0.00374107
0.00195172
-0.00691507
0.00990353
-0.0101827
0.00773708
-0.0032898
-0.00188239
0.0063004
-0.00870678
0.00844033
-0.00564453
0.0012357
0.00337227
-0.00671092
0.00773206
-0.00615783
0.00258187
0.00172499
-0.00524986
0.00676971
-0.00579217
0.00273967
0.00120194
-0.00452588
0.00597912
-0.00504977
0.00217123
0.00144862
-0.00431594
0.00526549
-0.00394715
0.00097383
0.0023432
-0.00456755
0.00477421
-0.00296513
6.93923e-05
0.00248271
-0.00342276
0.00223659
0.000599843
-0.00386321
0.00619549
-0.00678963
0.00580431
-0.00429116
0.00366195
-0.00496454
0.00834501
-0.0129849
0.0175537
-0.0209361
0.0228338
-0.0239032
0.0253411
-0.028146
0.0324766
-0.0374818
0.0417119
-0.0438756
0.0434983
-0.041088
0.0377111
-0.0342485
0.0308056
-0.026665
0.0208267
-0.0127976
0.00311761
0.00673306
-0.0150066
0.0205163
-0.0230948
0.0234014
-0.0222476
0.0199421
-0.0161412
0.0103241
-0.00254558
-0.00610995
0.0137605
-0.0185499
0.0195348
-0.0170479
0.0123223
-0.00668988
0.00095841
0.00460134
-0.00974179
0.0137228
-0.0153342
0.0135537
-0.00838016
0.00117325
0.00584258
-0.0106268
0.0122185
-0.0109027
0.00765054
-0.00338817
-0.00129445
0.00585679
-0.00938705
0.0106447
-0.00873026
0.00390354
0.00218936
-0.00721506
0.00936744
-0.00824498
0.00480591
-0.000564175
-0.00324741
0.00593683
-0.0070746
0.00624846
-0.00330594
-0.00110013
0.00533854
-0.00745965
0.00637223
-0.00262973
-0.00186419
0.00504029
-0.00581525
0.00439275
-0.00171265
-0.00124989
0.00371723
-0.00495481
0.00430073
-0.00166212
-0.00197427
0.00476199
-0.00508899
0.00275387
0.000819961
-0.0035837
0.00423874
-0.00286931
0.000500706
0.00175732
-0.00316004
0.0032639
-0.00188723
-0.000583019
0.00296145
-0.00375509
0.00227673
0.000609574
-0.0029888
0.00334678
-0.00168333
-0.000684571
0.00229307
-0.00249177
0.00148863
0.000136056
-0.00170964
0.00246747
-0.00179769
-0.000139738
0.00213396
-0.00267172
0.00126259
0.0010008
-0.00235983
0.00192216
-0.000282007
-0.00124528
0.00177618
-0.00125731
0.000107551
0.00111509
-0.00174182
0.00121071
0.00032534
-0.00174572
0.00178363
-0.000316757
-0.00136234
0.00178349
-0.000729135
-0.000712316
0.00136961
-0.000981631
5.16138e-05
0.000814684
-0.00117425
0.000734231
0.000372782
-0.00132078
0.0011437
0.000148227
-0.00132679
0.00119781
4.84115e-05
-0.0010929
0.00100794
-0.00011644
-0.000663352
0.000827543
-0.00043407
-0.00026116
0.000848944
-0.00076769
-0.000119053
0.00101253
-0.000873449
-0.000234583
0.00105913
-0.000688364
-0.000338764
0.000840771
-0.000460643
-0.000199381
0.000551911
-0.000483472
5.60479e-05
0.000522571
-0.000693466
7.19243e-05
0.00075124
-0.000713776
-0.000216931
0.000848704
-0.0004081
-0.000423704
0.000611933
-0.000148621
-0.000290941
0.000396011
-0.000234941
-0.000163126
0.000536854
-0.000324115
-0.000413085
0.000687004
-4.07696e-06
-0.000686994
0.000396254
0.000364673
-0.000503869
3.47214e-05
0.000283938
-0.000252706
0.000100636
0.000178736
-0.00041507
0.000109902
0.000501344
-0.000424678
-0.000352326
0.000588122
8.77671e-05
-0.000524312
0.000131492
0.000277815
-0.000191931
3.0814e-05
7.39093e-05
-0.000275395
0.000155434
0.000380704
-0.00038627
-0.000343172
0.000518573
0.000215924
-0.000499106
-7.3755e-05
0.000332562
-2.23863e-05
-6.99859e-05
4.70753e-05
-0.000214714
-1.31318e-05
0.000448678
-4.14888e-05
-0.000577039
7.47728e-05
0.000571085
-6.08928e-05
-0.000429974
2.48718e-06
0.00017965
6.92469e-05
0.000129002
-0.000107482
-0.000423914
7.27507e-05
0.000621634
4.12852e-05
-0.000647527
-0.000190732
0.000466497
0.000286287
-0.000115268
-0.000228918
-0.000283274
-2.83319e-05
0.000547563
0.000418978
-0.000518657
-0.000748522
0.000173534
0.000770666
0.000297166
-0.000353779
-0.000538373
-0.000347632
0.000252169
0.000876546
0.000500126
-0.00074198
-0.00117026
-0.000106579
0.00103888
0.000988583
6.75277e-05
-0.000878374
-0.00125688
-0.000515149
0.00109983
0.0019295
0.000721875
-0.00141067
-0.00226123
-0.00112721
0.000944464
0.00253766
0.00246563
0.000215763
-0.0029354
-0.00422882
-0.00207582
0.00211328
0.00531393
0.00533561
0.00174087
-0.00410395
-0.00896444
-0.00903349
-0.00285622
0.00699034
0.0154157
0.017622
0.0108284
-0.00468896
-0.0244906
-0.040241
-0.0424444
-0.0237273
0.0197482
0.0883282
0.178755
0.284289
0.396402
0.507251
0.610848
0.702757
0.780042
0.841936
0.889783
0.925714
0.951564
0.969121
0.980649
0.988352
0.993466
0.996424
0.997817
0.998624
0.999422
0.999976
0.999963
0.999699
0.999762
1.00014
1.00028
0.999969
0.999692
0.999881
1.00026
1.00026
0.999861
0.999658
0.999958
1.00033
1.00024
0.999787
0.999623
0.999992
1.00039
1.00026
0.999755
0.999558
0.999958
1.00044
1.00036
0.999792
0.999459
0.999812
1.00044
1.00055
0.999971
0.999383
0.999515
1.00026
1.00075
1.00039
0.999527
0.99914
0.999714
1.00068
1.00097
1.00022
0.999134
0.99887
0.999788
1.00104
1.00137
1.00033
0.998814
0.998265
0.999338
1.00121
1.00222
1.00133
0.999072
0.997257
0.997533
0.999989
1.00292
1.00402
1.00209
0.99809
0.994664
0.994461
0.998281
1.00431
1.00895
1.00883
1.00286
0.993217
0.984589
0.98217
0.98915
1.0049
1.02453
1.04004
1.04237
1.02393
0.980351
0.911487
0.821113
0.715874
0.603763
0.492616
0.388956
0.297335
0.220178
0.158024
0.109982
0.0742632
0.0486702
0.0309699
0.0191391
0.0114891
0.00670006
0.00379571
0.00208871
0.00111616
0.000578993
0.000291386
0.000142161
6.71672e-05
3.06902e-05
1.35366e-05
5.74928e-06
2.34329e-06
9.12094e-07
3.36597e-07
1.16422e-07
3.69842e-08
1.03525e-08
2.28226e-09
2.06929e-10
-1.57994e-10
-1.34431e-10
-7.02741e-11
-2.98049e-11
-1.08633e-11
-3.40528e-12
-8.71882e-13
-1.45596e-13
1.2419e-14
2.525e-14
1.43523e-14
5.95804e-15
2.00489e-15
5.39993e-16
9.88839e-17
-1.5026e-18
-1.1958e-17
-6.91071e-18
-2.74446e-18
-8.46674e-19
-1.93336e-19
-2.0334e-20
8.94107e-21
7.19994e-21
3.11047e-21
9.88902e-22
2.28013e-22
2.45794e-23
-9.63883e-24
-7.69567e-24
-3.18659e-24
-9.44944e-25
-1.89846e-25
-8.28163e-27
1.40007e-26
8.09514e-27
2.86102e-27
7.07655e-28
9.34913e-29
-1.84265e-29
-1.79677e-29
-7.33219e-30
-2.0208e-30
-3.38185e-31
1.51358e-32
3.76807e-32
1.7032e-32
4.93204e-33
8.83992e-34
-6.01125e-36
-7.94065e-35
-3.71262e-35
-1.07143e-35
-1.86941e-36
3.28494e-38
1.72088e-37
7.66458e-38
2.09058e-38
3.22774e-39
-2.4644e-40
-3.74056e-40
-1.48139e-40
-3.61332e-41
-4.2232e-42
1.00426e-42
7.76048e-43
2.61051e-43
5.31454e-44
2.76532e-45
-2.91362e-45
-1.46416e-45
-4.03256e-46
-6.02779e-47
4.96068e-48
6.62272e-48
2.40699e-48
5.12317e-49
3.48186e-50
-2.33009e-50
-1.21433e-50
-3.28043e-51
-4.58766e-52
5.00819e-53
5.31467e-53
1.78232e-53
3.37151e-54
8.67672e-56
-2.02416e-55
-8.61369e-56
-1.98456e-56
-1.82054e-57
6.56063e-58
3.79898e-58
1.02348e-58
1.36749e-59
-1.66346e-60
-1.55549e-60
-4.81023e-61
-7.883e-62
2.11105e-63
5.99481e-63
2.10724e-63
3.94436e-64
9.48784e-66
-2.20327e-65
-8.73495e-66
-1.79392e-66
-9.81988e-68
7.83051e-68
3.46391e-68
7.58872e-69
5.59673e-70
-2.73278e-70
-1.3249e-70
-3.02544e-71
-2.5636e-72
9.51291e-73
4.91644e-73
1.14566e-73
1.02452e-74
-3.3459e-75
-1.77642e-75
-4.13854e-76
-3.66927e-77
1.19638e-77
6.259e-78
1.42858e-78
1.18235e-79
-4.33708e-80
-2.14924e-80
-4.70942e-81
-3.37484e-82
1.57812e-82
7.17598e-83
1.47846e-83
8.103e-85
-5.68754e-85
-2.32093e-85
-4.39614e-86
-1.35819e-87
2.00417e-87
7.23583e-88
1.22694e-88
-3.49565e-91
-6.83072e-90
-2.16149e-90
-3.16552e-91
1.66196e-92
2.2325e-92
6.14141e-93
7.33915e-94
-9.77159e-95
-6.94809e-95
-1.64412e-95
-1.43433e-96
4.20384e-97
2.04603e-97
4.09217e-98
1.89913e-99
-1.53878e-99
-5.66198e-100
-9.26721e-101
9.6893e-103
5.02075e-102
1.45982e-102
1.83082e-103
-1.89987e-104
-1.48681e-104
-3.46273e-105
-2.82518e-106
8.89618e-107
4.01937e-107
7.39653e-108
1.84115e-109
-3.09356e-109
-9.89784e-110
-1.36219e-110
8.69815e-112
9.1028e-112
2.19709e-112
1.9205e-113
-5.0403e-114
-2.35378e-114
-4.28986e-115
-9.89518e-117
1.74885e-116
5.39427e-117
6.94275e-118
-5.80023e-119
-4.86033e-119
-1.08453e-119
-7.60517e-121
2.9037e-121
1.15266e-121
1.84355e-122
-2.07642e-124
-8.9774e-124
-2.35941e-124
-2.36329e-125
4.23322e-126
2.21188e-126
4.08078e-127
1.10824e-128
-1.52203e-128
-4.57546e-129
-5.49495e-130
5.55373e-131
3.89823e-131
7.90843e-132
3.87306e-133
-2.42827e-133
-8.07989e-134
-1.06931e-134
6.91718e-136
6.41661e-136
1.37528e-136
8.26705e-138
-3.72998e-138
-1.31684e-138
-1.81415e-139
9.0455e-141
9.97736e-141
2.17434e-141
1.36882e-142
-5.60564e-143
-1.99547e-143
-2.72863e-144
1.37055e-145
1.47346e-145
3.14333e-146
1.83719e-147
-8.27619e-148
-2.81799e-148
-3.65208e-149
2.36448e-150
2.06524e-150
4.15501e-151
1.94077e-152
-1.19013e-152
-3.70034e-153
-4.31757e-154
4.17248e-155
2.73125e-155
4.99448e-156
1.34551e-157
-1.63962e-157
-4.48963e-158
-4.40616e-159
6.92333e-160
3.37578e-160
5.39434e-161
-1.80297e-163
-2.12469e-162
-4.98174e-163
-3.66212e-164
1.04e-164
3.85317e-165
5.12503e-166
-2.79772e-167
-1.96093e-167
)
;

boundaryField
{
    sides
    {
        type            zeroGradient;
    }
    empty
    {
        type            empty;
    }
}


// ************************************************************************* //
