/*--------------------------------*- C++ -*----------------------------------*\
| =========                 |                                                 |
| \\      /  F ield         | OpenFOAM: The Open Source CFD Toolbox           |
|  \\    /   O peration     | Version:  2312                                  |
|   \\  /    A nd           | Website:  www.openfoam.com                      |
|    \\/     M anipulation  |                                                 |
\*---------------------------------------------------------------------------*/
FoamFile
{
    version     2.0;
    format      ascii;
    arch        "LSB;label=32;scalar=64";
    class       volScalarField;
    location    "2.5";
    object      T;
}
// * * * * * * * * * * * * * * * * * * * * * * * * * * * * * * * * * * * * * //

dimensions      [0 0 0 1 0 0 0];

internalField   nonuniform List<scalar> 
1000
(
0
0
0
0
0
0
0
0
0
0
0
0
0
0
0
0
0
0
0
0
0
0
0
0
0
0
0
0
0
0
0
0
0
0
0
0
0
0
0
0
0
0
0
0
0
0
0
0
0
0
0
0
0
0
0
0
0
0
0
0
0
0
0
0
0
0
0
0
0
0
0
0
0
0
0
0
0
0
0
0
0
0
0
0
0
0
0
0
0
0
0
0
0
0
0
0
0
0
0
0
0
0
0
0
0
0
0
0
0
0
0
0
0
0
0
0
0
0
0
0
0
0
0
0
0
0
0
0
0
0
0
0
0
0
0
0
0
0
0
0
0
0
0
0
0
0
0
0
0
0
0
0
0
0
0
0
0
0
0
0
0
0
0
0
0
0
0
0
0
0
0
0
0
0
0
0
0
0
0
0
0
0
0
0
0
0
0
0
0
0
0
0
0
0
0
0
0
0
0
0
0
0
0
0
0
0
0
0
0
0
0
0
0
0
0
0
0
0
0
0
0
0
0
0
0
0
0
0
0
0
0
0
0
0
0
0
0
0
0
0
0
0
0
0
0
0
0
0
0
0
0
0
0
0
0
0
0
0
0
0
0
0
0
0
0
0
0
0
0
0
0
0
0
0
0
0
0
0
0
0
0
0
0
0
0
0
0
0
0
0
0
0
0
0
0
0
0
0
0
0
0
0
0
0
0
0
0
0
0
0
0
0
0
0
0
0
0
0
0
0
0
0
0
0
0
0
0
0
0
0
0
0
0
0
0
0
0
0
0
0
0
0
0
0
0
0
0
0
0
0
0
0
0
0
0
0
0
0
0
0
0
0
0
0
0
0
0
0
0
0
0
0
0
0
0
0
0
0
0
0
0
0
0
0
0
0
0
0
0
0
0
0
0
0
0
0
0
0
0
0
0
0
0
0
0
0
0
0
0
0
0
0
0
0
0
0
0
0
0
0
0
0
0
0
0
0
0
0
0
0
0
0
0
0
0
0
0
0
0
0
0
0
0
0
0
0
0
0
0
0
4.08648e-72
6.54208e-70
5.23891e-68
2.7981e-66
1.12134e-64
3.59655e-63
9.61713e-62
2.20519e-60
4.42634e-59
7.90095e-58
1.26983e-56
1.85614e-55
2.48814e-54
3.08011e-53
3.54213e-52
3.80354e-51
3.83067e-50
3.63263e-49
3.25488e-48
2.76414e-47
2.23099e-46
1.71568e-45
1.25998e-44
8.8548e-44
5.96624e-43
3.86087e-42
2.40342e-41
1.44137e-40
8.33906e-40
4.66029e-39
2.51871e-38
1.31794e-37
6.68372e-37
3.28829e-36
1.57091e-35
7.29352e-35
3.29369e-34
1.44785e-33
6.19977e-33
2.58787e-32
1.05368e-31
4.18744e-31
1.62524e-30
6.16401e-30
2.28571e-29
8.29119e-29
2.9435e-28
1.02322e-27
3.48439e-27
1.16286e-26
3.805e-26
1.22118e-25
3.84566e-25
1.18875e-24
3.60819e-24
1.07578e-23
3.15159e-23
9.0751e-23
2.56934e-22
7.15436e-22
1.95985e-21
5.28324e-21
1.40191e-20
3.66264e-20
9.42396e-20
2.38861e-19
5.9653e-19
1.46823e-18
3.5623e-18
8.52184e-18
2.01046e-17
4.67851e-17
1.07412e-16
2.43344e-16
5.44115e-16
1.201e-15
2.6173e-15
5.63251e-15
1.19718e-14
2.51363e-14
5.21429e-14
1.06884e-13
2.16529e-13
4.33586e-13
8.58326e-13
1.68001e-12
3.25171e-12
6.22464e-12
1.17863e-11
2.20779e-11
4.09178e-11
7.50404e-11
1.36195e-10
2.44659e-10
4.35057e-10
7.65896e-10
1.335e-09
2.30422e-09
3.9387e-09
6.66822e-09
1.11826e-08
1.85779e-08
3.05784e-08
4.98704e-08
8.05976e-08
1.29091e-07
2.04929e-07
3.22468e-07
5.03021e-07
7.77932e-07
1.19287e-06
1.81374e-06
2.73481e-06
4.08968e-06
6.0659e-06
8.92447e-06
1.30253e-05
1.88601e-05
2.70948e-05
3.86236e-05
5.46353e-05
7.66982e-05
0.000106861
0.000147778
0.000202858
0.000276436
0.000373982
0.000502336
0.000669971
0.000887293
0.00116697
0.00152428
0.00197749
0.00254823
0.00326189
0.00414798
0.00524049
0.00657818
0.00820482
0.0101693
0.0125259
0.0153337
0.0186568
0.0225639
0.0271273
0.0324226
0.0385274
0.0455201
0.0534788
0.0624796
0.0725949
0.0838915
0.0964294
0.110259
0.12542
0.14194
0.159832
0.179093
0.199705
0.221633
0.244822
0.269203
0.294689
0.321175
0.348543
0.376662
0.405389
0.434574
0.464056
0.493675
0.523267
0.55267
0.581727
0.610286
0.638205
0.665352
0.691609
0.71687
0.741047
0.764064
0.785865
0.806406
0.825661
0.84362
0.860284
0.875668
0.889801
0.902719
0.914469
0.925102
0.934679
0.943263
0.950918
0.957713
0.963716
0.968993
0.973611
0.977632
0.981118
0.984125
0.986708
0.988915
0.990794
0.992385
0.993727
0.994853
0.995794
0.996576
0.997224
0.997759
0.998197
0.998555
0.998846
0.999081
0.99927
0.99942
0.999539
0.999631
0.9997
0.999749
0.999782
0.999797
0.999796
0.999778
0.999741
0.999681
0.999594
0.999473
0.999312
0.999099
0.998823
0.998468
0.998017
0.997448
0.996735
0.99585
0.994758
0.993421
0.991794
0.98983
0.987474
0.984666
0.981343
0.977436
0.972873
0.967577
0.961473
0.95448
0.946521
0.93752
0.927405
0.916108
0.903571
0.889741
0.87458
0.85806
0.840168
0.820907
0.800295
0.778367
0.755178
0.730797
0.705311
0.678825
0.651457
0.623338
0.594611
0.565426
0.535944
0.506325
0.476733
0.44733
0.418273
0.389714
0.361795
0.334648
0.308391
0.28313
0.258953
0.235936
0.214135
0.193594
0.174339
0.15638
0.139716
0.124332
0.110199
0.0972806
0.0855313
0.0748975
0.0653205
0.0567372
0.0490818
0.0422867
0.0362842
0.031007
0.0263894
0.0223681
0.0188824
0.015875
0.0132924
0.0110847
0.00920619
0.00761504
0.00627342
0.00514729
0.00420628
0.00342346
0.00277515
0.00224059
0.00180176
0.0014431
0.00115124
0.000914758
0.000723975
0.00057072
0.000448135
0.000350499
0.000273062
0.000211903
0.000163802
0.000126128
9.67439e-05
7.39192e-05
5.62625e-05
4.26594e-05
3.22217e-05
2.42453e-05
1.81742e-05
1.35719e-05
1.00969e-05
7.48341e-06
5.52567e-06
4.0649e-06
2.97919e-06
2.17538e-06
1.58259e-06
1.14711e-06
8.28413e-07
5.96077e-07
4.27342e-07
3.05263e-07
2.17271e-07
1.54087e-07
1.08886e-07
7.66699e-08
5.37937e-08
3.76093e-08
2.62014e-08
1.81896e-08
1.25834e-08
8.67471e-09
5.95934e-09
4.07976e-09
2.78335e-09
1.89237e-09
1.28219e-09
8.65794e-10
5.82635e-10
3.90755e-10
2.61183e-10
1.73988e-10
1.15515e-10
7.6437e-11
5.04107e-11
3.31359e-11
2.1709e-11
1.41758e-11
9.22639e-12
5.98542e-12
3.87027e-12
2.49447e-12
1.60255e-12
1.02623e-12
6.55058e-13
4.168e-13
2.64357e-13
1.67138e-13
1.05338e-13
6.61793e-14
4.14474e-14
2.58769e-14
1.61054e-14
9.9927e-15
6.18085e-15
3.8113e-15
2.34295e-15
1.43589e-15
8.77316e-16
5.34402e-16
3.24537e-16
1.96493e-16
1.18611e-16
7.13838e-17
4.28328e-17
2.56248e-17
1.52846e-17
9.09003e-18
5.39009e-18
3.18678e-18
1.87861e-18
1.10422e-18
6.47159e-19
3.7819e-19
2.20371e-19
1.28042e-19
7.41829e-20
4.28564e-20
2.46883e-20
1.41819e-20
8.12365e-21
4.64028e-21
2.64312e-21
1.50133e-21
8.50398e-22
4.80355e-22
2.70583e-22
1.51998e-22
8.51494e-23
4.75701e-23
2.65033e-23
1.47259e-23
8.15994e-24
4.50937e-24
2.48527e-24
1.36604e-24
7.48843e-25
4.0941e-25
2.23239e-25
1.21403e-25
6.58476e-26
3.5621e-26
1.92191e-26
1.03424e-26
5.55106e-27
2.97168e-27
1.58672e-27
8.4504e-28
4.48885e-28
2.37836e-28
1.25692e-28
6.62567e-29
3.48375e-29
1.82711e-29
9.55833e-30
4.98777e-30
2.59621e-30
1.34799e-30
6.98148e-31
3.60686e-31
1.8588e-31
9.55572e-32
4.9003e-32
2.50677e-32
1.27922e-32
6.51196e-33
3.30691e-33
1.67524e-33
8.4661e-34
4.26816e-34
2.14661e-34
1.07702e-34
5.39088e-35
2.69189e-35
1.34099e-35
6.66442e-36
3.30426e-36
1.63442e-36
8.06556e-37
3.97089e-37
1.95042e-37
9.5578e-38
4.67283e-38
2.27928e-38
1.10921e-38
5.38558e-39
2.60888e-39
1.26091e-39
6.08029e-40
2.92535e-40
1.40426e-40
6.72565e-41
3.21399e-41
1.53242e-41
7.29021e-42
3.46045e-42
1.63892e-42
7.74494e-43
3.65189e-43
1.71814e-43
8.06572e-44
3.77811e-44
1.76586e-44
8.23548e-45
3.83245e-45
1.7796e-45
8.24572e-46
3.81239e-46
1.75886e-46
8.09718e-47
3.71969e-47
1.70511e-47
7.79966e-48
3.56022e-48
1.62165e-48
7.37095e-49
3.3433e-49
1.51327e-49
6.83513e-50
3.08086e-50
1.38577e-50
6.22031e-51
2.78633e-51
1.24554e-51
5.55631e-52
2.47357e-52
1.09894e-52
4.87233e-53
2.15583e-53
9.51941e-54
4.19495e-54
1.84487e-54
8.09709e-55
3.54667e-55
1.55039e-55
6.76385e-56
2.94497e-56
1.27969e-56
5.54967e-57
2.40199e-57
1.03757e-57
4.47312e-58
1.92465e-58
8.26499e-59
3.5423e-59
1.51525e-59
6.46901e-60
2.75646e-60
1.17226e-60
4.97581e-61
2.10798e-61
8.91328e-62
3.76165e-62
1.58449e-62
6.66158e-63
2.79537e-63
1.17079e-63
4.89443e-64
2.04223e-64
8.50537e-65
)
;

boundaryField
{
    sides
    {
        type            zeroGradient;
    }
    empty
    {
        type            empty;
    }
}


// ************************************************************************* //
