/*--------------------------------*- C++ -*----------------------------------*\
| =========                 |                                                 |
| \\      /  F ield         | OpenFOAM: The Open Source CFD Toolbox           |
|  \\    /   O peration     | Version:  2312                                  |
|   \\  /    A nd           | Website:  www.openfoam.com                      |
|    \\/     M anipulation  |                                                 |
\*---------------------------------------------------------------------------*/
FoamFile
{
    version     2.0;
    format      ascii;
    arch        "LSB;label=32;scalar=64";
    class       volScalarField;
    location    "3.1";
    object      T;
}
// * * * * * * * * * * * * * * * * * * * * * * * * * * * * * * * * * * * * * //

dimensions      [0 0 0 1 0 0 0];

internalField   nonuniform List<scalar> 
1000
(
5.99302e-321
-3.28801e-320
3.16632e-319
-2.97281e-318
2.78399e-317
-2.59938e-316
2.41973e-315
-2.24572e-314
2.07793e-313
-1.91687e-312
1.76293e-311
-1.61642e-310
1.47757e-309
-1.34652e-308
1.22333e-307
-1.10799e-306
1.00043e-305
-9.00526e-305
8.08083e-304
-7.22875e-303
6.44636e-302
-5.73068e-301
5.07848e-300
-4.48636e-299
3.95078e-298
-3.46813e-297
3.03479e-296
-2.64715e-295
2.30165e-294
-1.99484e-293
1.72339e-292
-1.48408e-291
1.27387e-290
-1.0899e-289
9.29463e-289
-7.90063e-288
6.69375e-287
-5.65264e-286
4.75777e-285
-3.99135e-284
3.33731e-283
-2.78118e-282
2.31001e-281
-1.91225e-280
1.57767e-279
-1.29726e-278
1.06309e-277
-8.68241e-277
7.06698e-276
-5.73252e-275
4.63415e-274
-3.73339e-273
2.99736e-272
-2.39813e-271
1.91206e-270
-1.5192e-269
1.20286e-268
-9.4905e-268
7.46167e-267
-5.84589e-266
4.56379e-265
-3.55024e-264
2.75194e-263
-2.12552e-262
1.63581e-261
-1.25439e-260
9.58427e-260
-7.2964e-259
5.53445e-258
-4.18264e-257
3.14942e-256
-2.36271e-255
1.76596e-254
-1.31504e-253
9.75608e-253
-7.21085e-252
5.30963e-251
-3.89497e-250
2.84641e-249
-2.07223e-248
1.50287e-247
-1.08577e-246
7.8142e-246
-5.6021e-245
4.00065e-244
-2.84589e-243
2.01654e-242
-1.42327e-241
1.00058e-240
-7.00642e-240
4.88665e-239
-3.39461e-238
2.34868e-237
-1.61848e-236
1.11078e-235
-7.59249e-235
5.16849e-234
-3.50397e-233
2.36573e-232
-1.59063e-231
1.06504e-230
-7.10142e-230
4.71519e-229
-3.11759e-228
2.05256e-227
-1.34562e-226
8.78387e-226
-5.70926e-225
3.69484e-224
-2.38079e-223
1.52739e-222
-9.75593e-222
6.20399e-221
-3.92776e-220
2.4756e-219
-1.55335e-218
9.70282e-218
-6.03335e-217
3.73455e-216
-2.30106e-215
1.41129e-214
-8.61568e-214
5.23527e-213
-3.16631e-212
1.90598e-211
-1.14189e-210
6.80862e-210
-4.04025e-209
2.38595e-208
-1.40218e-207
8.2002e-207
-4.77209e-206
2.7634e-205
-1.59227e-204
9.12873e-204
-5.20732e-203
2.95537e-202
-1.66874e-201
9.37414e-201
-5.23869e-200
2.91238e-199
-1.61061e-198
8.86003e-198
-4.84802e-197
2.63853e-196
-1.42827e-195
7.68941e-195
-4.11709e-194
2.19222e-193
-1.1608e-192
6.11208e-192
-3.20008e-191
1.66591e-190
-8.62266e-190
4.4372e-189
-2.27004e-188
1.15449e-187
-5.83662e-187
2.93305e-186
-1.46502e-185
7.27289e-185
-3.58828e-184
1.75936e-183
-8.57209e-183
4.15006e-182
-1.99632e-181
9.54082e-181
-4.52992e-180
2.13655e-179
-1.00098e-178
4.65791e-178
-2.15267e-177
9.87988e-177
-4.50274e-176
2.03758e-175
-9.15436e-175
4.08297e-174
-1.80767e-173
7.94351e-173
-3.46427e-172
1.49924e-171
-6.43787e-171
2.74267e-170
-1.15908e-169
4.85856e-169
-2.01975e-168
8.3257e-168
-3.40265e-167
1.37854e-166
-5.53546e-166
2.20268e-165
-8.68421e-165
3.39164e-164
-1.3119e-163
5.02468e-163
-1.90518e-162
7.14946e-162
-2.65466e-161
9.75027e-161
-3.54132e-160
1.27148e-159
-4.51122e-159
1.58105e-158
-5.47109e-158
1.86841e-157
-6.29374e-157
2.08989e-156
-6.83633e-156
2.20127e-155
-6.97093e-155
2.16884e-154
-6.62151e-154
1.98083e-153
-5.79596e-153
1.65512e-152
-4.59961e-152
1.23926e-151
-3.22019e-151
8.00863e-151
-1.8835e-150
4.1016e-150
-7.91975e-150
1.20355e-149
-6.80561e-150
-4.66807e-149
2.74795e-148
-1.03389e-147
3.20906e-147
-8.69382e-147
2.06741e-146
-4.1722e-146
6.26954e-146
-2.26214e-146
-3.06801e-145
1.59597e-144
-5.46954e-144
1.50486e-143
-3.40157e-143
5.86015e-143
-4.68047e-143
-1.69347e-142
1.07868e-141
-3.78967e-141
1.00776e-140
-2.05921e-140
2.64823e-140
1.60744e-140
-2.43283e-139
9.67983e-139
-2.6682e-138
5.37579e-138
-6.08449e-138
-8.44312e-138
7.55549e-137
-2.68702e-136
6.56876e-136
-1.05276e-135
2.1448e-136
5.85524e-135
-2.57783e-134
6.94056e-134
-1.21465e-133
5.51676e-134
5.49538e-133
-2.58229e-132
6.93034e-132
-1.14228e-131
1.63749e-132
6.59181e-131
-2.70847e-130
6.47467e-130
-8.19426e-130
-9.00663e-130
8.6461e-129
-2.7565e-128
5.10014e-128
-2.07403e-128
-2.41529e-127
1.03764e-126
-2.36594e-126
2.30476e-126
6.2562e-126
-3.7347e-125
9.74007e-125
-1.2125e-124
-1.67576e-124
1.35351e-123
-3.78802e-123
5.04909e-123
5.62945e-123
-5.08938e-122
1.42441e-121
-1.79306e-121
-2.59806e-121
1.98968e-120
-5.16287e-120
5.22854e-120
1.40728e-119
-7.88739e-119
1.7526e-118
-9.56032e-119
-7.55151e-118
3.03482e-117
-5.20552e-117
-1.7292e-117
3.70646e-116
-1.06818e-115
1.11642e-115
2.96527e-115
-1.5931e-114
3.12123e-114
3.56207e-116
-1.88647e-113
5.67166e-113
-5.68982e-113
-1.70209e-112
8.43208e-112
-1.45791e-111
-7.81147e-112
1.09436e-110
-2.67831e-110
1.13451e-110
1.26812e-109
-4.2354e-109
4.30698e-109
1.31127e-108
-6.14545e-108
9.02685e-108
1.17577e-107
-8.46609e-107
1.56561e-106
8.25918e-107
-1.13383e-105
2.46828e-105
2.50382e-106
-1.50445e-104
3.67751e-104
-5.14558e-105
-2.00888e-103
5.28043e-103
-1.34042e-103
-2.73028e-102
7.378e-102
-1.92642e-102
-3.79676e-101
1.00589e-100
-1.66742e-101
-5.3916e-100
1.33354e-99
5.40947e-101
-7.75134e-99
1.70147e-98
6.54701e-99
-1.1132e-97
2.04757e-97
1.91625e-97
-1.57089e-96
2.23365e-96
4.2161e-96
-2.13647e-95
2.00553e-95
7.96718e-95
-2.73221e-94
9.6403e-95
1.34377e-93
-3.16334e-93
-1.41251e-93
2.03865e-92
-3.06765e-92
-5.62561e-92
2.74962e-91
-1.90778e-91
-1.18116e-90
3.17379e-90
9.18166e-91
-1.91574e-89
2.81009e-89
5.7539e-89
-2.52065e-88
1.04988e-88
1.21063e-87
-2.55128e-87
-2.516e-87
1.79553e-86
-1.4494e-86
-7.53937e-86
1.94463e-85
1.15696e-85
-1.22846e-84
1.18267e-84
4.93104e-84
-1.3463e-83
-7.5794e-84
8.3134e-83
-7.34844e-83
-3.47231e-82
8.5801e-82
7.31945e-82
-5.5398e-81
3.15972e-81
2.55861e-80
-4.84867e-80
-7.70774e-80
3.49893e-79
-3.4912e-81
-1.84907e-78
2.12516e-78
7.38424e-78
-1.93303e-77
-1.79837e-77
1.20705e-76
-3.13661e-77
-6.00565e-76
7.66537e-76
2.3842e-75
-6.29831e-75
-6.4698e-75
3.87493e-74
-1.5088e-75
-1.99609e-73
1.80963e-73
8.78491e-73
-1.66226e-72
-3.18211e-72
1.1069e-71
7.81566e-72
-6.26615e-71
5.87024e-72
3.16277e-70
-2.49521e-70
-1.44404e-69
2.21713e-69
5.92737e-69
-1.49104e-68
-2.11069e-68
8.76458e-68
5.74942e-68
-4.73026e-67
-4.24898e-68
2.39877e-66
-9.47667e-67
-1.15768e-65
9.90219e-66
5.35825e-65
-7.12258e-65
-2.38997e-64
4.42376e-64
1.03039e-63
-2.53335e-63
-4.30155e-63
1.37727e-62
1.74063e-62
-7.22339e-62
-6.83286e-62
3.69197e-61
2.60643e-61
-1.85175e-60
-9.70842e-61
9.15978e-60
3.57637e-60
-4.4848e-59
-1.34086e-59
2.17906e-58
5.38504e-59
-1.05235e-57
-2.45822e-58
5.05513e-57
1.30346e-57
-2.41497e-56
-7.72399e-57
1.14614e-55
4.8142e-56
-5.39329e-55
-3.01944e-55
2.50876e-54
1.86272e-54
-1.14877e-53
-1.11941e-53
5.14844e-53
6.52953e-53
-2.23996e-52
-3.69161e-52
9.34546e-52
2.02101e-51
-3.66335e-51
-1.06983e-50
1.29625e-50
5.46251e-50
-3.73353e-50
-2.67968e-49
5.14181e-50
1.25503e-48
3.74085e-49
-5.55509e-48
-4.61089e-48
2.28341e-47
3.37434e-47
-8.42377e-47
-2.03108e-46
2.56542e-46
1.07921e-45
-4.55066e-46
-5.15844e-45
-1.49536e-45
2.20606e-44
2.26171e-44
-8.1717e-44
-1.627e-43
2.36967e-43
9.1003e-43
-3.10017e-43
-4.27853e-42
-2.26197e-42
1.68699e-41
2.48488e-41
-5.15248e-41
-1.56085e-40
7.85219e-41
7.54926e-40
3.93632e-40
-2.88443e-39
-4.61489e-39
7.71987e-39
2.79579e-38
-3.49752e-39
-1.23776e-37
-1.20939e-37
3.94037e-37
9.62393e-37
-5.68773e-37
-4.75111e-36
-3.22786e-36
1.61974e-35
3.34059e-35
-2.67633e-35
-1.73922e-34
-1.09556e-34
5.85495e-34
1.2238e-33
-8.12173e-34
-6.17336e-33
-5.04557e-33
1.85518e-32
4.67254e-32
-1.02145e-32
-2.0639e-31
-2.57343e-31
4.65534e-31
1.73964e-30
7.19814e-31
-5.96158e-30
-1.20708e-29
5.30638e-30
5.69317e-29
6.91055e-29
-1.17132e-28
-4.66216e-28
-2.97616e-28
1.36057e-27
3.45825e-27
4.66754e-28
-1.28483e-26
-2.40083e-26
8.59654e-27
1.09128e-25
1.60335e-25
-1.37399e-25
-8.71624e-25
-1.06098e-24
1.41022e-24
6.71377e-24
7.19488e-24
-1.20886e-23
-5.06169e-23
-5.15967e-23
9.19337e-23
3.76018e-22
3.9712e-22
-6.23888e-22
-2.74835e-21
-3.24281e-21
3.62804e-21
1.95653e-20
2.72328e-20
-1.53274e-20
-1.32923e-19
-2.26774e-19
7.91557e-22
8.31162e-19
1.80916e-18
9.52926e-19
-4.44638e-18
-1.33557e-17
-1.39895e-17
1.62787e-17
8.71393e-17
1.41972e-16
1.85389e-17
-4.59653e-16
-1.14299e-15
-1.08116e-15
1.43716e-15
7.21611e-15
1.2382e-14
4.99856e-15
-3.05949e-14
-9.24054e-14
-1.23592e-13
8.22213e-15
4.41588e-13
1.08565e-12
1.26218e-12
-4.33019e-13
-5.34676e-12
-1.23762e-11
-1.4397e-11
3.3498e-12
5.63502e-11
1.38224e-10
1.83735e-10
4.16773e-11
-4.84193e-10
-1.44734e-09
-2.38767e-09
-1.90904e-09
2.35279e-09
1.25862e-08
2.76556e-08
3.79337e-08
2.0327e-08
-6.06087e-08
-2.3573e-07
-4.88197e-07
-6.81967e-07
-4.82625e-07
6.68359e-07
3.4138e-06
8.02514e-06
1.34993e-05
1.62122e-05
8.44853e-06
-2.23466e-05
-9.2046e-05
-0.000213765
-0.000384447
-0.000561398
-0.000627117
-0.000343011
0.00070395
0.00315342
0.00791036
0.0161553
0.0293112
0.0489558
0.0766762
0.113874
0.16154
0.220036
0.288913
0.366813
0.451485
0.539917
0.628598
0.713852
0.79223
0.860865
0.917765
0.96198
0.993631
1.01379
1.02427
1.02731
1.02525
1.02028
1.01424
1.00844
1.00369
1.00035
0.998403
0.997615
0.997637
0.998117
0.998761
0.999367
0.999827
1.00011
1.00023
1.00024
1.00019
1.00012
1.00005
1.00001
0.999982
0.999974
0.999977
0.999985
0.999993
0.999998
1
1
1
1
1
1
1
1
1
1
1
1
1
1
1
1
1
1
1
1
1
1
1
1
1
1
1
1
1
1
1
1
1
1
1
1
1
0.999999
0.999997
0.999992
0.999987
0.999984
0.999992
1.00002
1.00009
1.00021
1.00038
1.00056
1.00063
1.00034
0.999296
0.996847
0.99209
0.983845
0.970689
0.951044
0.923324
0.886126
0.83846
0.779964
0.711087
0.633187
0.548515
0.460083
0.371402
0.286148
0.20777
0.139135
0.0822354
0.0380201
0.00636892
-0.0137944
-0.0242744
-0.0273073
-0.0252469
-0.0202845
-0.0142382
-0.00843601
-0.00368977
-0.00034851
0.00159676
0.00238533
0.00236323
0.00188332
0.001239
0.000632659
0.000172946
-0.000108638
-0.000232127
-0.000243042
-0.000191525
-0.000119132
-5.31426e-05
-6.58498e-06
1.83923e-05
2.60346e-05
2.29429e-05
1.52857e-05
7.40807e-06
1.56435e-06
-1.66967e-06
-2.72967e-06
-2.44078e-06
-1.59068e-06
-7.23427e-07
-1.05647e-07
2.09657e-07
2.88531e-07
2.34157e-07
1.35819e-07
4.85889e-08
-5.75088e-09
-2.77954e-08
-2.82697e-08
-1.90559e-08
-8.66363e-09
-1.25987e-09
2.32937e-09
3.04343e-09
2.28024e-09
1.1565e-09
2.77459e-10
-1.85648e-10
-3.08839e-10
-2.46486e-10
-1.30483e-10
-3.5248e-11
1.61674e-11
3.061e-11
2.47333e-11
1.2963e-11
3.35357e-12
-1.69758e-12
-2.9962e-12
-2.32044e-12
-1.14317e-12
-2.38405e-13
2.00839e-13
2.85838e-13
2.01816e-13
8.80166e-14
9.54262e-15
-2.34371e-14
-2.58396e-14
-1.59215e-14
-5.61671e-15
4.92662e-16
2.48713e-15
2.14058e-15
1.09759e-15
2.53133e-16
-1.55336e-16
-2.31348e-16
-1.56581e-16
-6.15623e-17
-1.3591e-18
2.0029e-17
1.84301e-17
9.61161e-18
2.27637e-18
-1.23982e-18
-1.86161e-18
-1.21974e-18
-4.45529e-19
1.73293e-20
1.6258e-19
1.34907e-19
6.28741e-20
9.88163e-21
-1.20037e-20
-1.34223e-20
-7.51621e-21
-2.04305e-21
6.82387e-22
1.22254e-21
8.05286e-22
2.84608e-22
-1.69757e-23
-1.03073e-22
-7.95673e-23
-3.32868e-23
-2.62102e-24
8.1074e-24
7.38123e-24
3.49342e-24
5.70988e-25
-5.99026e-25
-6.51267e-25
-3.39248e-25
-7.47033e-26
4.19133e-26
5.52198e-26
3.10191e-26
8.04561e-27
-2.81299e-27
-4.53787e-27
-2.70008e-27
-7.71485e-28
1.85227e-28
3.63994e-28
2.25387e-28
6.79765e-29
-1.24139e-29
-2.86527e-29
-1.81281e-29
-5.58701e-30
8.86044e-31
2.22109e-30
1.4088e-30
4.31327e-31
-6.9359e-32
-1.69766e-31
-1.05899e-31
-3.13313e-32
5.89219e-33
1.27835e-32
7.69647e-33
2.13505e-33
-5.2167e-34
-9.45802e-34
-5.39817e-34
-1.35301e-34
4.61873e-35
6.84778e-35
3.64189e-35
7.82668e-36
-3.97852e-36
-4.82813e-36
-2.35171e-36
-3.96615e-37
3.28538e-37
3.29714e-37
1.44317e-37
1.56779e-38
-2.58218e-38
-2.16816e-38
-8.32691e-39
-2.35035e-40
1.9246e-39
1.36408e-39
4.43983e-40
-3.86852e-41
-1.35711e-40
-8.14851e-41
-2.11799e-41
5.81333e-42
9.03153e-42
4.57608e-42
8.37619e-43
-5.53008e-43
-5.65399e-43
-2.3809e-43
-2.04424e-44
4.34567e-44
3.31307e-44
1.11932e-44
-5.86646e-46
-3.01533e-45
-1.80275e-45
-4.51117e-46
1.31989e-46
1.89233e-46
8.98733e-47
1.33112e-47
-1.22906e-47
-1.08242e-47
-4.00339e-48
-4.27066e-50
8.85213e-49
5.63126e-49
1.50701e-49
-3.34062e-50
-5.4648e-50
-2.63185e-50
-4.0153e-51
3.40018e-51
2.98133e-51
1.07199e-51
-4.39607e-54
-2.39089e-52
-1.44389e-52
-3.51409e-53
1.03099e-53
1.38822e-53
6.11523e-54
6.62888e-55
-9.24702e-55
-6.95409e-55
-2.15775e-55
2.07323e-56
5.84118e-56
3.01466e-56
5.38261e-57
-3.219e-57
-3.02866e-57
-1.09665e-57
-4.67831e-60
2.27114e-58
1.33137e-58
2.99905e-59
-1.06565e-59
-1.00229e-59
)
;

boundaryField
{
    sides
    {
        type            zeroGradient;
    }
    empty
    {
        type            empty;
    }
}


// ************************************************************************* //
