/*--------------------------------*- C++ -*----------------------------------*\
| =========                 |                                                 |
| \\      /  F ield         | OpenFOAM: The Open Source CFD Toolbox           |
|  \\    /   O peration     | Version:  2312                                  |
|   \\  /    A nd           | Website:  www.openfoam.com                      |
|    \\/     M anipulation  |                                                 |
\*---------------------------------------------------------------------------*/
FoamFile
{
    version     2.0;
    format      ascii;
    arch        "LSB;label=32;scalar=64";
    class       volScalarField;
    location    "3.9";
    object      T;
}
// * * * * * * * * * * * * * * * * * * * * * * * * * * * * * * * * * * * * * //

dimensions      [0 0 0 1 0 0 0];

internalField   nonuniform List<scalar> 
1000
(
0
0
0
0
0
0
0
0
0
0
0
0
0
0
0
0
0
0
0
0
0
0
0
0
0
0
0
0
0
0
0
0
0
0
0
0
0
0
0
0
0
0
0
0
0
0
0
0
0
0
0
0
0
0
0
0
0
0
0
0
0
0
0
0
0
0
0
0
0
0
0
0
0
0
0
0
0
0
0
0
0
0
0
0
0
0
0
0
0
0
0
0
0
0
0
0
0
0
0
0
0
0
0
0
0
0
0
0
0
0
0
0
0
0
0
0
0
0
0
0
0
0
0
0
0
0
0
0
0
0
0
0
0
0
0
0
0
0
0
0
0
0
0
0
0
0
0
0
0
0
0
0
0
0
0
0
0
0
0
0
0
0
0
0
0
0
0
0
0
0
0
0
0
0
0
0
0
0
0
0
0
0
0
0
0
0
0
0
0
0
0
0
0
0
0
0
0
0
0
0
0
0
0
0
0
0
0
0
0
0
0
0
0
0
0
0
0
0
0
0
0
0
0
0
0
0
0
0
0
0
0
0
2.47033e-322
2.17488e-320
1.64568e-318
1.23682e-316
9.25438e-315
6.89394e-313
5.11282e-311
3.775e-309
2.77476e-307
2.03038e-305
1.47899e-303
1.07244e-301
7.741e-300
5.56192e-298
3.97782e-296
2.83171e-294
2.00644e-292
1.41503e-290
9.93242e-289
6.93883e-287
4.82445e-285
3.33833e-283
2.29889e-281
1.57545e-279
1.07443e-277
7.2916e-276
4.92416e-274
3.30897e-272
2.21255e-270
1.47204e-268
9.7446e-267
6.41817e-265
4.20581e-263
2.742e-261
1.77849e-259
1.1476e-257
7.36661e-256
4.70408e-254
2.98811e-252
1.88808e-250
1.18668e-248
7.41858e-247
4.61286e-245
2.85277e-243
1.75467e-241
1.07336e-239
6.52981e-238
3.95045e-236
2.37666e-234
1.42184e-232
8.45824e-231
5.00311e-229
2.9425e-227
1.72065e-225
1.00036e-223
5.78208e-222
3.32252e-220
1.89796e-218
1.07777e-216
6.08369e-215
3.41347e-213
1.90368e-211
1.05522e-209
5.81335e-208
3.18293e-206
1.73191e-204
9.36495e-203
5.03207e-201
2.68677e-199
1.42541e-197
7.51367e-196
3.93506e-194
2.04746e-192
1.05834e-190
5.43451e-189
2.77205e-187
1.40451e-185
7.06825e-184
3.53297e-182
1.75383e-180
8.64637e-179
4.23306e-177
2.05791e-175
9.93413e-174
4.76144e-172
2.26584e-170
1.07048e-168
5.02066e-167
2.3375e-165
1.08026e-163
4.95521e-162
2.25594e-160
1.01929e-158
4.57036e-157
2.03354e-155
8.97801e-154
3.93281e-152
1.7092e-150
7.36923e-149
3.15181e-147
1.33714e-145
5.62654e-144
2.34814e-142
9.71835e-141
3.98854e-139
1.62315e-137
6.5492e-136
2.61983e-134
1.03891e-132
4.08382e-131
1.59113e-129
6.14405e-128
2.35115e-126
8.91547e-125
3.34971e-123
1.2469e-121
4.59805e-120
1.67956e-118
6.07655e-117
2.17728e-115
7.72545e-114
2.7142e-112
9.44114e-111
3.25106e-109
1.10814e-107
3.73844e-106
1.24813e-104
4.12338e-103
1.34778e-101
4.35823e-100
1.39402e-98
4.41002e-97
1.37966e-95
4.26779e-94
1.30521e-92
3.94584e-91
1.17902e-89
3.48149e-88
1.01579e-86
2.92802e-85
8.33697e-84
2.34443e-82
6.51013e-81
1.78482e-79
4.83031e-78
1.2902e-76
3.40065e-75
8.84319e-74
2.26837e-72
5.73845e-71
1.4314e-69
3.51984e-68
8.53079e-67
2.03734e-65
4.79345e-64
1.11081e-62
2.53477e-61
5.69419e-60
1.25896e-58
2.7388e-57
5.86085e-56
1.23336e-54
2.55166e-53
5.18831e-52
1.03649e-50
2.03375e-49
3.91813e-48
7.40896e-47
1.3746e-45
2.50133e-44
4.46247e-43
7.80205e-42
1.33626e-40
2.24092e-39
3.67807e-38
5.90557e-37
9.27115e-36
1.42236e-34
2.13132e-33
3.11748e-32
4.4485e-31
6.18874e-30
8.38845e-29
1.107e-27
1.42128e-26
1.77395e-25
2.15067e-24
2.53047e-23
2.88683e-22
3.19013e-21
3.41124e-20
3.52573e-19
3.51808e-18
3.38479e-17
3.13572e-16
2.79312e-15
2.38839e-14
1.95725e-13
1.53433e-12
1.14831e-11
8.18686e-11
5.54716e-10
3.5628e-09
2.16291e-08
1.23723e-07
6.6452e-07
3.3384e-06
1.56196e-05
6.77351e-05
0.000270794
0.000992061
0.00330832
0.00996888
0.0269271
0.0646598
0.136937
0.254156
0.412383
0.587617
0.745844
0.863063
0.93534
0.973073
0.990031
0.996692
0.999008
0.999729
0.999932
0.999984
0.999997
0.999999
1
1
1
1
1
1
1
1
1
1
1
1
1
1
1
1
1
1
1
1
1
1
1
1
1
1
1
1
1
1
1
1
1
1
1
1
1
1
1
1
1
1
1
1
1
1
1
1
1
1
1
1
1
1
1
1
1
1
1
1
1
1
1
1
1
1
1
1
1
1
1
1
1
1
0.999999
0.999997
0.999984
0.999932
0.999729
0.999008
0.996692
0.990031
0.973073
0.93534
0.863063
0.745844
0.587617
0.412383
0.254156
0.136937
0.0646598
0.0269271
0.00996888
0.00330832
0.000992061
0.000270794
6.77351e-05
1.56196e-05
3.3384e-06
6.6452e-07
1.23723e-07
2.16291e-08
3.5628e-09
5.54716e-10
8.18686e-11
1.14831e-11
1.53433e-12
1.95725e-13
2.38839e-14
2.79312e-15
3.13572e-16
3.38479e-17
3.51808e-18
3.52573e-19
3.41124e-20
3.19013e-21
2.88683e-22
2.53047e-23
2.15067e-24
1.77395e-25
1.42128e-26
1.107e-27
8.38845e-29
6.18874e-30
4.4485e-31
3.11748e-32
2.13132e-33
1.42236e-34
9.27115e-36
5.90557e-37
3.67807e-38
2.24092e-39
1.33626e-40
7.80205e-42
4.46247e-43
2.50133e-44
1.3746e-45
7.40896e-47
3.91813e-48
2.03375e-49
1.03649e-50
5.18831e-52
2.55166e-53
1.23336e-54
5.86085e-56
2.7388e-57
1.25896e-58
5.69419e-60
2.53477e-61
1.11081e-62
4.79345e-64
2.03734e-65
8.53079e-67
3.51984e-68
1.4314e-69
5.73845e-71
2.26837e-72
8.84319e-74
3.40065e-75
1.2902e-76
4.83031e-78
1.78482e-79
6.51013e-81
2.34443e-82
8.33697e-84
2.92802e-85
1.01579e-86
3.48149e-88
1.17902e-89
3.94584e-91
1.30521e-92
4.26779e-94
1.37966e-95
4.41002e-97
1.39402e-98
4.35823e-100
1.34778e-101
4.12338e-103
1.24813e-104
3.73844e-106
1.10814e-107
3.25106e-109
9.44114e-111
2.7142e-112
7.72545e-114
2.17728e-115
6.07655e-117
1.67956e-118
4.59805e-120
1.2469e-121
3.34971e-123
8.91547e-125
2.35115e-126
6.14405e-128
1.59113e-129
4.08382e-131
1.03891e-132
2.61983e-134
6.5492e-136
1.62315e-137
3.98854e-139
9.71835e-141
2.34814e-142
5.62654e-144
1.33714e-145
3.15181e-147
7.36923e-149
1.7092e-150
3.93281e-152
8.97801e-154
2.03354e-155
4.57036e-157
1.01929e-158
2.25594e-160
4.95521e-162
1.08026e-163
2.3375e-165
5.02066e-167
1.07048e-168
2.26584e-170
4.76144e-172
9.93413e-174
2.05791e-175
4.23306e-177
8.64637e-179
1.75383e-180
3.53297e-182
7.06825e-184
1.40451e-185
2.77205e-187
5.43451e-189
1.05834e-190
2.04746e-192
3.93506e-194
7.51367e-196
1.42541e-197
2.68677e-199
5.03207e-201
9.36495e-203
1.73191e-204
3.18293e-206
5.81335e-208
1.05522e-209
1.90368e-211
3.41347e-213
6.08369e-215
1.07777e-216
1.89796e-218
3.32252e-220
5.78208e-222
1.00036e-223
1.72065e-225
2.9425e-227
5.00311e-229
8.45824e-231
1.42184e-232
2.37666e-234
3.95045e-236
6.52981e-238
1.07336e-239
1.75467e-241
2.85277e-243
4.61286e-245
7.41858e-247
1.18668e-248
1.88808e-250
2.98811e-252
4.70408e-254
7.36661e-256
1.1476e-257
1.77849e-259
2.742e-261
4.20581e-263
6.41817e-265
9.7446e-267
1.47204e-268
2.21255e-270
3.30897e-272
4.92416e-274
7.2916e-276
1.07443e-277
1.57545e-279
2.29889e-281
3.33833e-283
4.82445e-285
6.93883e-287
9.93242e-289
1.41503e-290
2.00644e-292
2.83171e-294
3.97782e-296
5.56192e-298
7.741e-300
1.07244e-301
1.47899e-303
2.03038e-305
2.77476e-307
3.775e-309
5.11282e-311
6.89394e-313
9.25438e-315
1.23682e-316
1.64568e-318
2.17488e-320
2.47033e-322
0
0
0
0
0
0
0
0
0
0
0
0
0
0
0
0
0
0
0
0
0
0
0
0
0
0
0
0
0
0
0
0
0
0
0
0
0
0
0
0
0
0
0
0
0
0
0
0
0
0
0
0
0
0
0
0
0
0
0
0
0
0
0
0
0
0
0
0
0
0
0
0
0
0
0
0
0
0
0
0
0
0
0
0
0
0
0
0
0
0
0
0
0
0
0
0
0
0
0
0
0
0
0
0
0
0
0
0
0
0
0
0
0
0
0
0
0
0
0
0
0
0
0
0
0
0
0
0
0
0
0
0
0
0
0
0
0
0
0
0
0
0
0
0
0
0
0
0
0
0
0
0
0
0
0
0
0
0
0
0
0
0
0
0
0
0
0
0
0
0
0
0
0
0
0
0
0
0
0
0
0
0
0
0
0
0
0
0
0
0
0
0
0
0
0
0
0
0
0
0
0
0
0
0
0
0
0
0
0
0
0
0
0
0
0
0
0
0
0
0
0
0
0
0
0
0
0
0
0
0
0
0
)
;

boundaryField
{
    sides
    {
        type            zeroGradient;
    }
    empty
    {
        type            empty;
    }
}


// ************************************************************************* //
