/*--------------------------------*- C++ -*----------------------------------*\
| =========                 |                                                 |
| \\      /  F ield         | OpenFOAM: The Open Source CFD Toolbox           |
|  \\    /   O peration     | Version:  2312                                  |
|   \\  /    A nd           | Website:  www.openfoam.com                      |
|    \\/     M anipulation  |                                                 |
\*---------------------------------------------------------------------------*/
FoamFile
{
    version     2.0;
    format      ascii;
    arch        "LSB;label=32;scalar=64";
    class       volScalarField;
    location    "4.8";
    object      T;
}
// * * * * * * * * * * * * * * * * * * * * * * * * * * * * * * * * * * * * * //

dimensions      [0 0 0 1 0 0 0];

internalField   nonuniform List<scalar> 
1000
(
0
0
0
0
0
0
0
0
0
0
0
0
0
0
0
0
0
0
0
0
0
0
0
0
0
0
0
0
0
0
0
0
0
0
0
0
0
0
0
0
0
0
0
0
0
0
0
0
0
0
0
0
0
0
0
0
0
0
0
0
0
0
0
0
0
0
0
0
0
0
0
0
0
0
0
0
0
0
0
0
0
0
0
0
0
0
0
0
0
0
0
0
0
0
0
0
0
0
0
0
0
0
0
0
0
0
0
0
0
0
0
0
0
0
0
0
0
0
0
0
0
0
0
0
0
0
0
0
0
0
0
0
0
0
0
0
0
0
0
0
0
0
0
0
0
0
0
0
0
0
0
0
0
0
0
0
0
0
0
0
0
0
0
0
0
0
0
0
0
0
0
0
0
0
0
0
0
0
0
0
0
0
0
0
0
0
0
0
0
0
0
0
0
0
0
0
0
0
0
0
0
0
0
0
0
0
0
0
0
0
0
0
0
0
0
0
0
0
0
0
0
0
1.06224e-321
7.44903e-320
4.82156e-318
3.10505e-316
1.99111e-314
1.27138e-312
8.08353e-311
5.11755e-309
3.22589e-307
2.02467e-305
1.26523e-303
7.872e-302
4.87631e-300
3.00732e-298
1.84646e-296
1.12866e-294
6.86817e-293
4.16067e-291
2.50911e-289
1.50626e-287
9.00113e-286
5.35425e-284
3.17026e-282
1.86843e-280
1.09606e-278
6.39963e-277
3.71903e-275
2.15104e-273
1.23823e-271
7.09375e-270
4.04447e-268
2.29482e-266
1.29576e-264
7.28081e-263
4.07101e-261
2.26506e-259
1.25401e-257
6.90807e-256
3.78645e-254
2.06499e-252
1.12047e-250
6.04876e-249
3.24867e-247
1.73583e-245
9.22686e-244
4.87907e-242
2.56651e-240
1.34295e-238
6.98989e-237
3.61881e-235
1.86351e-233
9.54448e-232
4.86202e-230
2.46326e-228
1.24113e-226
6.2191e-225
3.09901e-223
1.53565e-221
7.56688e-220
3.70753e-218
1.80626e-216
8.74963e-215
4.21401e-213
2.01783e-211
9.60589e-210
4.54613e-208
2.13885e-206
1.00031e-204
4.65044e-203
2.149e-201
9.87068e-200
4.50618e-198
2.04457e-196
9.21962e-195
4.13163e-193
1.83997e-191
8.14255e-190
3.58059e-188
1.56449e-186
6.79199e-185
2.9296e-183
1.25541e-181
5.34455e-180
2.26029e-178
9.49563e-177
3.96251e-175
1.64241e-173
6.76143e-172
2.76451e-170
1.12253e-168
4.52647e-167
1.8125e-165
7.20657e-164
2.84506e-162
1.11517e-160
4.33968e-159
1.67654e-157
6.42961e-156
2.44763e-154
9.24857e-153
3.46851e-151
1.291e-149
4.76866e-148
1.74795e-146
6.35761e-145
2.29438e-143
8.21517e-142
2.91821e-140
1.02834e-138
3.59461e-137
1.24631e-135
4.28578e-134
1.46162e-132
4.94321e-131
1.65775e-129
5.51229e-128
1.81726e-126
5.93933e-125
1.92425e-123
6.17948e-122
1.96687e-120
6.20431e-119
1.93942e-117
6.00716e-116
1.84353e-114
5.60499e-113
1.68812e-111
5.03611e-110
1.48802e-108
4.35413e-107
1.26163e-105
3.61955e-104
1.02807e-102
2.89066e-101
8.04499e-100
2.21596e-98
6.04028e-97
1.62915e-95
4.34736e-94
1.14762e-92
2.99655e-91
7.73829e-90
1.97612e-88
4.98964e-87
1.24553e-85
3.07334e-84
7.49506e-83
1.80629e-81
4.30112e-80
1.0118e-78
2.35104e-77
5.39518e-76
1.22255e-74
2.73504e-73
6.03988e-72
1.31639e-70
2.83106e-69
6.00686e-68
1.25717e-66
2.59482e-65
5.28076e-64
1.05943e-62
2.09482e-61
4.08151e-60
7.83427e-59
1.48108e-57
2.75713e-56
5.05274e-55
9.11334e-54
1.61732e-52
2.82334e-51
4.84684e-50
8.18004e-49
1.35683e-47
2.21121e-46
3.53942e-45
5.56273e-44
8.58117e-43
1.29883e-41
1.92816e-40
2.80642e-39
4.00317e-38
5.59395e-37
7.65429e-36
1.0251e-34
1.34307e-33
1.72062e-32
2.15428e-31
2.63461e-30
3.14544e-29
3.66386e-28
4.16121e-27
4.60512e-26
4.96253e-25
5.20346e-24
5.30492e-23
5.25427e-22
5.05155e-21
4.71004e-20
4.25498e-19
3.72052e-18
3.14541e-17
2.56814e-16
2.02254e-15
1.53442e-14
1.11983e-13
7.84989e-13
5.27691e-12
3.3958e-11
2.088e-10
1.22422e-09
6.82917e-09
3.61581e-08
1.81231e-07
8.57431e-07
3.81717e-06
1.59354e-05
6.21471e-05
0.000225485
0.000757692
0.00234645
0.00666168
0.0172426
0.0404596
0.085608
0.162608
0.276559
0.421445
0.578555
0.723441
0.837392
0.914392
0.95954
0.982757
0.993338
0.997654
0.999242
0.999775
0.999938
0.999984
0.999996
0.999999
1
1
1
1
1
1
1
1
1
1
1
1
1
1
1
1
1
1
1
1
1
1
1
1
1
1
1
1
1
1
1
1
1
1
1
1
1
1
1
1
1
1
1
1
1
1
1
1
1
1
1
1
1
1
1
1
1
1
1
1
1
1
1
1
1
1
1
1
1
1
1
1
0.999999
0.999996
0.999984
0.999938
0.999775
0.999242
0.997654
0.993338
0.982757
0.95954
0.914392
0.837392
0.723441
0.578555
0.421445
0.276559
0.162608
0.085608
0.0404596
0.0172426
0.00666168
0.00234645
0.000757692
0.000225485
6.21471e-05
1.59354e-05
3.81717e-06
8.57431e-07
1.81231e-07
3.61581e-08
6.82917e-09
1.22422e-09
2.088e-10
3.3958e-11
5.27691e-12
7.84989e-13
1.11983e-13
1.53442e-14
2.02254e-15
2.56814e-16
3.14541e-17
3.72052e-18
4.25498e-19
4.71004e-20
5.05155e-21
5.25427e-22
5.30492e-23
5.20346e-24
4.96253e-25
4.60512e-26
4.16121e-27
3.66386e-28
3.14544e-29
2.63461e-30
2.15428e-31
1.72062e-32
1.34307e-33
1.0251e-34
7.65429e-36
5.59395e-37
4.00317e-38
2.80642e-39
1.92816e-40
1.29883e-41
8.58117e-43
5.56273e-44
3.53942e-45
2.21121e-46
1.35683e-47
8.18004e-49
4.84684e-50
2.82334e-51
1.61732e-52
9.11334e-54
5.05274e-55
2.75713e-56
1.48108e-57
7.83427e-59
4.08151e-60
2.09482e-61
1.05943e-62
5.28076e-64
2.59482e-65
1.25717e-66
6.00686e-68
2.83106e-69
1.31639e-70
6.03988e-72
2.73504e-73
1.22255e-74
5.39518e-76
2.35104e-77
1.0118e-78
4.30112e-80
1.80629e-81
7.49506e-83
3.07334e-84
1.24553e-85
4.98964e-87
1.97612e-88
7.73829e-90
2.99655e-91
1.14762e-92
4.34736e-94
1.62915e-95
6.04028e-97
2.21596e-98
8.04499e-100
2.89066e-101
1.02807e-102
3.61955e-104
1.26163e-105
4.35413e-107
1.48802e-108
5.03611e-110
1.68812e-111
5.60499e-113
1.84353e-114
6.00716e-116
1.93942e-117
6.20431e-119
1.96687e-120
6.17948e-122
1.92425e-123
5.93933e-125
1.81726e-126
5.51229e-128
1.65775e-129
4.94321e-131
1.46162e-132
4.28578e-134
1.24631e-135
3.59461e-137
1.02834e-138
2.91821e-140
8.21517e-142
2.29438e-143
6.35761e-145
1.74795e-146
4.76866e-148
1.291e-149
3.46851e-151
9.24857e-153
2.44763e-154
6.42961e-156
1.67654e-157
4.33968e-159
1.11517e-160
2.84506e-162
7.20657e-164
1.8125e-165
4.52647e-167
1.12253e-168
2.76451e-170
6.76143e-172
1.64241e-173
3.96251e-175
9.49563e-177
2.26029e-178
5.34455e-180
1.25541e-181
2.9296e-183
6.79199e-185
1.56449e-186
3.58059e-188
8.14255e-190
1.83997e-191
4.13163e-193
9.21962e-195
2.04457e-196
4.50618e-198
9.87068e-200
2.149e-201
4.65044e-203
1.00031e-204
2.13885e-206
4.54613e-208
9.60589e-210
2.01783e-211
4.21401e-213
8.74963e-215
1.80626e-216
3.70753e-218
7.56688e-220
1.53565e-221
3.09901e-223
6.2191e-225
1.24113e-226
2.46326e-228
4.86202e-230
9.54448e-232
1.86351e-233
3.61881e-235
6.98989e-237
1.34295e-238
2.56651e-240
4.87907e-242
9.22686e-244
1.73583e-245
3.24867e-247
6.04876e-249
1.12047e-250
2.06499e-252
3.78645e-254
6.90807e-256
1.25401e-257
2.26506e-259
4.07101e-261
7.28081e-263
1.29576e-264
2.29482e-266
4.04447e-268
7.09375e-270
1.23823e-271
2.15104e-273
3.71903e-275
6.39963e-277
1.09606e-278
1.86843e-280
3.17026e-282
5.35425e-284
9.00113e-286
1.50626e-287
2.50911e-289
4.16067e-291
6.86817e-293
1.12866e-294
1.84646e-296
3.00732e-298
4.87631e-300
7.872e-302
1.26523e-303
2.02467e-305
3.22589e-307
5.11755e-309
8.08353e-311
1.27138e-312
1.99111e-314
3.10505e-316
4.82156e-318
7.44903e-320
1.06224e-321
0
0
0
0
0
0
0
0
0
0
0
0
0
0
0
0
0
0
0
0
0
0
0
0
0
0
0
0
0
0
0
0
0
0
0
0
0
0
0
0
0
0
0
0
0
0
0
0
0
0
0
0
0
0
0
0
0
0
0
0
0
0
0
0
0
0
0
0
0
0
0
0
0
0
0
0
0
0
0
0
0
0
0
0
0
0
0
0
0
0
0
0
0
0
0
0
0
0
0
0
0
0
0
0
0
0
0
0
0
0
0
0
0
0
0
0
0
0
0
0
0
0
0
0
0
0
0
0
0
0
0
0
0
0
0
0
0
0
0
0
0
0
0
0
0
0
0
0
0
0
0
0
0
0
0
0
0
0
0
0
0
0
0
0
0
0
0
0
0
0
0
0
0
0
0
0
0
0
0
0
0
0
0
0
0
0
0
0
0
0
0
0
0
0
0
0
0
0
0
0
0
0
0
0
0
0
0
0
0
0
0
0
0
0
0
0
0
0
0
0
0
0
)
;

boundaryField
{
    sides
    {
        type            zeroGradient;
    }
    empty
    {
        type            empty;
    }
}


// ************************************************************************* //
