/*--------------------------------*- C++ -*----------------------------------*\
| =========                 |                                                 |
| \\      /  F ield         | OpenFOAM: The Open Source CFD Toolbox           |
|  \\    /   O peration     | Version:  2312                                  |
|   \\  /    A nd           | Website:  www.openfoam.com                      |
|    \\/     M anipulation  |                                                 |
\*---------------------------------------------------------------------------*/
FoamFile
{
    version     2.0;
    format      ascii;
    arch        "LSB;label=32;scalar=64";
    class       volScalarField;
    location    "4";
    object      T;
}
// * * * * * * * * * * * * * * * * * * * * * * * * * * * * * * * * * * * * * //

dimensions      [0 0 0 1 0 0 0];

internalField   nonuniform List<scalar> 
1000
(
2.7563e-295
-5.89454e-295
4.56426e-294
-2.97352e-293
1.95474e-292
-1.27956e-291
8.34868e-291
-5.42905e-290
3.51864e-289
-2.27281e-288
1.46314e-287
-9.38721e-287
6.00217e-286
-3.82468e-285
2.42881e-284
-1.53707e-283
9.69377e-283
-6.09232e-282
3.81556e-281
-2.38129e-280
1.48095e-279
-9.17766e-279
5.66741e-278
-3.4873e-277
2.13817e-276
-1.30627e-275
7.95164e-275
-4.82288e-274
2.91457e-273
-1.75491e-272
1.05278e-271
-6.29245e-271
3.74706e-270
-2.22302e-269
1.31393e-268
-7.73689e-268
4.53859e-267
-2.65232e-266
1.5441e-265
-8.95485e-265
5.17332e-264
-2.97714e-263
1.70663e-262
-9.74497e-262
5.54262e-261
-3.14003e-260
1.77186e-259
-9.95838e-259
5.5745e-258
-3.10793e-257
1.72574e-256
-9.54347e-256
5.25602e-255
-2.88281e-254
1.57462e-253
-8.56489e-253
4.63924e-252
-2.5023e-251
1.34397e-250
-7.18759e-250
3.82748e-249
-2.0294e-248
1.07135e-247
-5.63115e-247
2.9468e-246
-1.53526e-245
7.96296e-245
-4.11168e-244
2.1135e-243
-1.08146e-242
5.50848e-242
-2.79287e-241
1.40946e-240
-7.07992e-240
3.53964e-239
-1.76129e-238
8.72226e-238
-4.29871e-237
2.10835e-236
-1.02903e-235
4.99777e-235
-2.4153e-234
1.16143e-233
-5.55687e-233
2.64521e-232
-1.25276e-231
5.90242e-231
-2.7665e-230
1.28988e-229
-5.98231e-229
2.75971e-228
-1.26624e-227
5.77832e-227
-2.62241e-226
1.18355e-225
-5.31178e-225
2.37047e-224
-1.05183e-223
4.64028e-223
-2.03521e-222
8.87378e-222
-3.84607e-221
1.65693e-220
-7.09479e-220
3.01921e-219
-1.27682e-218
5.36563e-218
-2.24041e-217
9.29429e-217
-3.83044e-216
1.56814e-215
-6.37657e-215
2.5752e-214
-1.0328e-213
4.11292e-213
-1.62619e-212
6.38307e-212
-2.48697e-211
9.61696e-211
-3.69042e-210
1.40516e-209
-5.30784e-209
1.98879e-208
-7.39037e-208
2.72316e-207
-9.94785e-207
3.60204e-206
-1.29253e-205
4.59518e-205
-1.6182e-204
5.64304e-204
-1.94816e-203
6.65623e-203
-2.24999e-202
7.52177e-202
-2.48582e-201
8.1177e-201
-2.61813e-200
8.33484e-200
-2.61742e-199
8.10216e-199
-2.47008e-198
7.40922e-198
-2.18411e-197
6.31832e-197
-1.79059e-196
4.96028e-196
-1.33937e-195
3.51177e-195
-8.89357e-195
2.1584e-194
-4.957e-194
1.05335e-193
-1.97463e-193
2.84247e-193
-9.86744e-194
-1.40801e-192
7.63879e-192
-2.83474e-191
8.86557e-191
-2.46205e-190
6.13888e-190
-1.35423e-189
2.49746e-189
-3.09596e-189
-1.63193e-189
2.83393e-188
-1.24813e-187
4.0778e-187
-1.11297e-186
2.57764e-186
-4.81982e-186
5.67111e-186
5.16721e-186
-6.13977e-185
2.51439e-184
-7.61418e-184
1.86419e-183
-3.58045e-183
4.19392e-183
4.28274e-183
-4.68752e-182
1.84322e-181
-5.25828e-181
1.16212e-180
-1.77958e-180
3.77623e-181
9.88923e-180
-4.62292e-179
1.39694e-178
-3.13964e-178
4.69098e-178
-1.3115e-179
-2.97581e-177
1.29553e-176
-3.66088e-176
7.35663e-176
-7.86208e-176
-1.38748e-175
1.09392e-174
-3.72904e-174
8.66626e-174
-1.23985e-173
-3.78244e-174
9.50852e-173
-3.6942e-172
9.15482e-172
-1.40068e-171
-1.11185e-172
9.37787e-171
-3.73251e-170
9.11038e-170
-1.29245e-169
-6.07205e-170
1.06197e-168
-3.83326e-168
8.43764e-168
-8.98445e-168
-1.80874e-167
1.27359e-166
-3.8113e-166
6.73009e-166
-1.94805e-166
-3.4858e-165
1.45463e-164
-3.34646e-164
3.55333e-164
7.56992e-164
-5.06763e-163
1.42112e-162
-2.12253e-162
-1.00809e-162
1.69593e-161
-5.59998e-161
9.91359e-161
-1.24429e-161
-5.71024e-160
2.13656e-159
-4.12779e-159
1.50912e-159
2.01892e-158
-8.08115e-158
1.60006e-157
-6.22843e-158
-7.695e-157
3.05745e-156
-5.83555e-156
1.27882e-156
3.14777e-155
-1.15153e-154
1.97592e-154
3.84911e-155
-1.33885e-153
4.24077e-153
-5.92868e-153
-6.25789e-153
5.67682e-152
-1.47955e-151
1.37053e-151
4.54873e-151
-2.30131e-150
4.63272e-150
-8.54955e-151
-2.53422e-149
8.53509e-149
-1.1544e-148
-1.54012e-148
1.17628e-147
-2.7167e-147
1.29076e-147
1.23862e-146
-4.55376e-146
6.37856e-146
8.06742e-146
-6.24402e-145
1.3811e-144
-3.66217e-145
-7.17086e-144
2.32464e-143
-2.51348e-143
-6.5485e-143
3.38753e-142
-5.83682e-142
-3.45006e-142
4.44356e-141
-1.05041e-140
3.17979e-141
5.32699e-140
-1.66671e-139
1.4545e-139
5.84079e-139
-2.45044e-138
3.20662e-138
5.76727e-138
-3.42956e-137
5.75067e-137
4.8829e-137
-4.65374e-136
9.31637e-136
2.98374e-136
-6.21189e-135
1.42118e-134
-6.53129e-137
-8.25822e-134
2.08513e-133
-4.23397e-134
-1.10501e-132
2.9778e-132
-9.14368e-133
-1.5001e-131
4.16639e-131
-1.374e-131
-2.07492e-130
5.72502e-130
-1.57409e-130
-2.92359e-129
7.71657e-129
-1.07709e-129
-4.17709e-128
1.0152e-127
8.88153e-129
-6.00301e-127
1.2912e-126
5.58311e-127
-8.58833e-126
1.56148e-125
1.49155e-125
-1.20872e-124
1.74155e-124
3.15055e-124
-1.65089e-123
1.67477e-123
5.84841e-123
-2.15178e-122
1.10683e-122
9.87292e-122
-2.61302e-121
-3.23348e-122
1.53148e-120
-2.83404e-120
-3.04561e-120
2.17653e-119
-2.48078e-119
-7.4272e-119
2.78872e-118
-1.09068e-118
-1.34981e-117
3.09627e-117
1.83632e-117
-2.05137e-116
2.67016e-116
6.60078e-116
-2.64341e-115
9.82284e-116
1.28861e-114
-2.75869e-114
-2.39381e-114
1.92227e-113
-1.90262e-113
-7.3972e-113
2.25899e-112
3.74675e-113
-1.29652e-111
1.86593e-111
4.12751e-111
-1.66418e-110
3.3253e-111
8.54565e-110
-1.47995e-109
-2.41289e-109
1.16213e-108
-4.06084e-109
-5.69673e-108
1.04195e-107
1.58776e-107
-7.86361e-107
2.43765e-107
3.89486e-106
-6.63577e-106
-1.19416e-105
5.15541e-105
-4.15584e-106
-2.70455e-104
3.71402e-104
9.70142e-104
-3.2038e-103
-1.17765e-103
1.84964e-102
-1.62167e-102
-7.87346e-102
1.79281e-101
2.07331e-101
-1.18787e-100
2.57833e-101
5.98022e-100
-7.99247e-100
-2.27488e-99
6.65866e-99
4.86818e-99
-4.00497e-98
1.58828e-98
1.93507e-97
-2.77267e-97
-7.36667e-97
2.16375e-96
1.7649e-96
-1.29275e-95
2.8275e-96
6.45461e-95
-7.26591e-95
-2.70182e-94
6.10619e-94
8.75126e-94
-3.88587e-93
-1.31133e-93
2.10712e-92
-9.9813e-93
-1.00474e-91
1.27972e-91
4.19062e-91
-9.62703e-91
-1.45002e-90
5.93722e-90
3.3015e-90
-3.24709e-89
4.62709e-90
1.62015e-88
-1.25571e-88
-7.43996e-88
1.08249e-87
3.12809e-87
-7.25258e-87
-1.17454e-86
4.28948e-86
3.65137e-86
-2.34245e-85
-6.6849e-86
1.20646e-84
-2.29327e-85
-5.92875e-84
3.74225e-84
2.79865e-83
-3.00773e-83
-1.27387e-82
1.97757e-82
5.60064e-82
-1.17608e-81
-2.37799e-81
6.57628e-81
9.72881e-81
-3.52607e-80
-3.81547e-80
1.83417e-79
1.42027e-79
-9.32822e-79
-4.92228e-79
4.66434e-78
1.52328e-78
-2.30279e-77
-3.74032e-78
1.12627e-76
3.44119e-78
-5.47145e-76
3.90289e-77
2.64568e-75
-3.81337e-76
-1.27533e-74
2.39787e-75
6.1349e-74
-1.24454e-74
-2.94659e-73
5.55614e-74
1.41304e-72
-2.05159e-73
-6.76219e-72
4.93593e-73
3.22594e-71
8.95334e-73
-1.5317e-70
-2.40562e-71
7.22302e-70
2.27991e-70
-3.37372e-69
-1.70586e-69
1.55544e-68
1.13777e-68
-7.04769e-68
-7.0589e-68
3.12012e-67
4.15374e-67
-1.33878e-66
-2.34142e-66
5.49952e-66
1.27077e-65
-2.11818e-65
-6.65474e-65
7.33539e-65
3.3624e-64
-2.04101e-64
-1.63584e-63
2.38029e-64
7.63012e-63
2.39819e-63
-3.38639e-62
-2.74381e-62
1.41141e-61
1.97867e-61
-5.39016e-61
-1.19325e-60
1.78635e-60
6.43608e-60
-4.33348e-60
-3.17241e-59
1.39851e-61
1.43238e-58
9.11884e-59
-5.84661e-58
-8.00811e-58
2.07523e-57
5.03301e-57
-5.70009e-57
-2.66039e-56
5.74559e-57
1.22738e-55
6.86181e-56
-4.91011e-55
-6.9435e-55
1.61021e-54
4.39154e-54
-3.4253e-54
-2.22478e-53
-4.17986e-54
9.39652e-53
1.0217e-52
-3.18471e-52
-7.39283e-52
6.98249e-52
3.88041e-51
6.9674e-52
-1.61596e-50
-1.9006e-50
5.08319e-50
1.33768e-49
-8.12711e-50
-6.60652e-49
-3.4993e-49
2.45902e-48
4.16868e-48
-5.9303e-48
-2.4396e-47
-2.22308e-48
1.01248e-46
1.26322e-46
-2.81705e-46
-8.67565e-46
1.53146e-46
3.84454e-45
4.05608e-45
-1.11453e-44
-3.09517e-44
7.57339e-45
1.39097e-43
1.47942e-43
-3.86603e-43
-1.1249e-42
1.07264e-43
4.80657e-42
6.08694e-42
-1.14972e-41
-4.10247e-41
-1.00961e-41
1.5424e-40
2.61383e-40
-2.54869e-40
-1.43809e-39
-1.0701e-39
4.26866e-39
1.07226e-38
-1.14799e-39
-4.51385e-38
-6.45996e-38
8.20272e-38
3.8796e-37
2.81223e-37
-1.10873e-36
-2.89993e-36
-2.53549e-37
1.11444e-35
1.92937e-35
-1.23267e-35
-9.69917e-35
-1.14269e-34
1.89179e-34
7.72984e-34
5.86335e-34
-2.01544e-33
-5.81596e-33
-2.36357e-33
1.8482e-32
4.22138e-32
4.2179e-33
-1.55904e-31
-3.00993e-31
4.79201e-32
1.24758e-30
2.14318e-30
-7.56763e-31
-9.63009e-30
-1.54538e-29
7.04325e-30
7.23339e-29
1.13898e-28
-5.08209e-29
-5.30149e-28
-8.598e-28
2.76619e-28
3.78024e-27
6.6081e-27
-6.66598e-28
-2.59789e-26
-5.10572e-26
-9.55201e-27
1.6893e-25
3.89898e-25
2.01622e-25
-1.00359e-24
-2.88439e-24
-2.53518e-24
5.03297e-24
2.01757e-23
2.59044e-23
-1.59936e-23
-1.28958e-22
-2.29635e-22
-5.10895e-23
7.07856e-22
1.78629e-21
1.54568e-21
-2.81161e-21
-1.19591e-20
-1.77519e-20
8.5773e-22
6.44785e-20
1.48765e-19
1.26355e-19
-2.18702e-19
-9.62895e-19
-1.55556e-18
-4.25497e-19
4.33676e-18
1.20526e-17
1.46882e-17
-5.03094e-18
-6.2602e-17
-1.38822e-16
-1.35106e-16
1.29765e-16
7.83767e-16
1.55464e-15
1.34066e-15
-1.75764e-15
-8.99676e-15
-1.74569e-14
-1.56235e-14
1.6786e-14
9.54798e-14
1.96817e-13
2.09466e-13
-8.36122e-14
-9.03749e-13
-2.15702e-12
-2.9052e-12
-9.40564e-13
6.74492e-12
2.14425e-11
3.74273e-11
3.52643e-11
-2.0509e-11
-1.67983e-10
-4.04928e-10
-6.11274e-10
-4.62161e-10
5.87009e-10
3.09368e-09
7.01735e-09
1.06188e-08
9.12465e-09
-5.91756e-09
-4.47501e-08
-1.12369e-07
-1.93978e-07
-2.33181e-07
-1.09577e-07
3.66526e-07
1.41012e-06
3.12325e-06
5.2165e-06
6.5708e-06
4.69464e-06
-4.72836e-06
-2.77906e-05
-7.11217e-05
-0.000138472
-0.000223898
-0.000300264
-0.000302044
-0.000102086
0.000516824
0.00189311
0.00451597
0.00904717
0.0163278
0.0273625
0.0432752
0.0652331
0.0943404
0.13151
0.177326
0.231912
0.294831
0.365032
0.44086
0.520136
0.600306
0.678641
0.752474
0.819435
0.877655
0.925921
0.96375
0.99138
1.00969
1.02003
1.02407
1.02357
1.02021
1.01544
1.0104
1.00588
1.00231
0.999852
0.998445
0.997891
0.997935
0.998325
0.998849
0.999358
0.999764
1.00004
1.00018
1.00022
1.0002
1.00014
1.00008
1.00003
0.999999
0.999981
0.999977
0.99998
0.999986
0.999993
0.999998
1
1
1
1
1
1
1
1
1
1
1
1
1
1
1
1
1
1
1
1
1
1
1
1
1
1
1
1
1
1
1
1
0.999999
0.999997
0.999995
0.999993
0.999995
1
1.00003
1.00007
1.00014
1.00022
1.0003
1.0003
1.0001
0.999483
0.998107
0.995484
0.990953
0.983672
0.972637
0.956725
0.934767
0.90566
0.86849
0.822674
0.768088
0.705169
0.634968
0.55914
0.479864
0.399694
0.321359
0.247526
0.180565
0.122345
0.0740792
0.0362504
0.00862022
-0.00968616
-0.0200299
-0.0240713
-0.0235708
-0.0202082
-0.0154384
-0.0103994
-0.00587509
-0.00230838
0.000147521
0.00155478
0.00210929
0.00206526
0.00167532
0.00115076
0.00064196
0.000235801
-3.51121e-05
-0.000177027
-0.000218354
-0.000195232
-0.000141246
-8.1732e-05
-3.205e-05
1.38118e-06
1.85893e-05
2.32183e-05
2.01119e-05
1.36725e-05
7.03934e-06
1.92448e-06
-1.14074e-06
-2.38612e-06
-2.38851e-06
-1.76249e-06
-9.85352e-07
-3.39483e-07
6.73771e-08
2.45562e-07
2.62625e-07
1.9654e-07
1.08932e-07
3.60309e-08
-8.76514e-09
-2.71173e-08
-2.75596e-08
-1.94599e-08
-9.81391e-09
-2.38716e-09
1.73171e-09
3.05348e-09
2.68403e-09
1.66335e-09
6.74057e-10
1.71347e-11
-2.78104e-10
-3.15964e-10
-2.27522e-10
-1.12932e-10
-2.53083e-11
2.09741e-11
3.35932e-11
2.73748e-11
1.52256e-11
4.77281e-12
-1.29655e-12
-3.37176e-12
-3.02993e-12
-1.79881e-12
-6.40581e-13
6.76519e-14
3.31892e-13
3.16812e-13
1.93133e-13
7.12293e-14
-4.38197e-15
-3.28965e-14
-3.17246e-14
-1.91389e-14
-6.82891e-15
6.35824e-16
3.30286e-15
3.04965e-15
1.75438e-15
5.62851e-16
-1.17676e-16
-3.30829e-16
-2.79399e-16
-1.47415e-16
-3.79614e-17
1.861e-17
3.2185e-17
2.40387e-17
1.11044e-17
1.72274e-18
-2.44932e-18
-2.95648e-18
-1.90111e-18
-7.15745e-19
1.69369e-20
2.74321e-19
2.49817e-19
1.33969e-19
3.49669e-20
-1.5344e-20
-2.65093e-20
-1.89049e-20
-7.96673e-21
-6.39631e-22
2.19869e-21
2.21313e-21
1.23589e-21
3.48159e-22
-1.12682e-22
-2.19976e-22
-1.57544e-22
-6.51273e-23
-4.28391e-24
1.82062e-23
1.746e-23
9.21185e-24
2.22307e-24
-1.12814e-24
-1.7177e-24
-1.11533e-24
-3.97628e-25
2.36525e-26
1.5036e-25
1.2099e-25
5.44089e-26
7.12586e-27
-1.15086e-26
-1.20251e-26
-6.45301e-27
-1.58547e-27
7.24772e-28
1.10884e-27
6.95066e-28
2.28234e-28
-2.91812e-29
-9.5567e-29
-6.96394e-29
-2.74939e-29
-9.36194e-31
7.73131e-30
6.58707e-30
2.97765e-30
3.96328e-31
-5.88233e-31
-5.94445e-31
-2.99275e-31
-6.01472e-32
4.20967e-32
5.16074e-32
2.8409e-32
7.11321e-33
-2.83001e-33
-4.34058e-33
-2.57554e-33
-7.39813e-34
1.78408e-34
3.55897e-34
2.24712e-34
7.06811e-35
-1.05558e-35
-2.86035e-35
-1.89844e-35
-6.32019e-36
1.17006e-36
)
;

boundaryField
{
    sides
    {
        type            zeroGradient;
    }
    empty
    {
        type            empty;
    }
}


// ************************************************************************* //
