/*--------------------------------*- C++ -*----------------------------------*\
| =========                 |                                                 |
| \\      /  F ield         | OpenFOAM: The Open Source CFD Toolbox           |
|  \\    /   O peration     | Version:  2312                                  |
|   \\  /    A nd           | Website:  www.openfoam.com                      |
|    \\/     M anipulation  |                                                 |
\*---------------------------------------------------------------------------*/
FoamFile
{
    version     2.0;
    format      ascii;
    arch        "LSB;label=32;scalar=64";
    class       volScalarField;
    location    "3.1";
    object      T;
}
// * * * * * * * * * * * * * * * * * * * * * * * * * * * * * * * * * * * * * //

dimensions      [0 0 0 1 0 0 0];

internalField   nonuniform List<scalar> 
1000
(
0
0
0
0
0
0
0
0
0
0
0
0
0
0
0
0
0
0
0
0
0
0
0
0
0
0
0
0
0
0
0
0
0
0
0
0
0
0
0
0
0
0
0
0
0
0
0
0
0
0
0
0
0
0
0
0
0
0
0
0
0
0
0
0
0
0
0
0
0
0
0
0
0
0
0
0
0
0
0
0
0
0
0
0
0
0
0
0
0
0
0
0
0
0
0
0
0
0
0
0
0
0
0
0
0
0
0
0
0
0
0
0
0
0
0
0
0
0
0
0
0
0
0
0
0
0
0
0
0
0
0
0
0
0
0
0
0
0
0
0
0
0
0
0
0
0
0
0
0
0
0
0
0
0
0
0
0
0
0
0
0
0
0
0
0
0
0
0
0
0
0
0
0
0
0
0
0
0
0
0
0
0
0
0
0
0
0
0
0
0
0
0
0
0
0
0
0
0
0
0
0
0
0
0
0
0
0
0
0
0
0
0
0
0
0
0
0
0
0
0
0
0
0
0
0
0
0
0
0
0
0
0
0
0
0
0
0
0
0
0
0
0
0
2.831e-321
2.58322e-319
2.30571e-317
2.04814e-315
1.81102e-313
1.59398e-311
1.39647e-309
1.21775e-307
1.05694e-305
9.13052e-304
7.85031e-302
6.71756e-300
5.72083e-298
4.84862e-296
4.08956e-294
3.4326e-292
2.86712e-290
2.38306e-288
1.97095e-286
1.62203e-284
1.32822e-282
1.08218e-280
8.77268e-279
7.0755e-277
5.67755e-275
4.53244e-273
3.59962e-271
2.84394e-269
2.23518e-267
1.74751e-265
1.35902e-263
1.05128e-261
8.08885e-260
6.19031e-258
4.71176e-256
3.56685e-254
2.68536e-252
2.01058e-250
1.49702e-248
1.10843e-246
8.16097e-245
5.97472e-243
4.34931e-241
3.14798e-239
2.26537e-237
1.62078e-235
1.15284e-233
8.15198e-232
5.73039e-230
4.00421e-228
2.78128e-226
1.92022e-224
1.3177e-222
8.98716e-221
6.09192e-219
4.10385e-217
2.74736e-215
1.82772e-213
1.20824e-211
7.93644e-210
5.17976e-208
3.35881e-206
2.16388e-204
1.38494e-202
8.80559e-201
5.56156e-199
3.48917e-197
2.17428e-195
1.34572e-193
8.27207e-192
5.04982e-190
3.06137e-188
1.84294e-186
1.10163e-184
6.53838e-183
3.8529e-181
2.25406e-179
1.30911e-177
7.54738e-176
4.31917e-174
2.45336e-172
1.3831e-170
7.73842e-169
4.29662e-167
2.36728e-165
1.29418e-163
7.01994e-162
3.77777e-160
2.01684e-158
1.0681e-156
5.61079e-155
2.92335e-153
1.51059e-151
7.74093e-150
3.93355e-148
1.98194e-146
9.90087e-145
4.90345e-143
2.40735e-141
1.17152e-139
5.65066e-138
2.70114e-136
1.27955e-134
6.00612e-133
2.79328e-131
1.287e-129
5.87419e-128
2.6557e-126
1.18914e-124
5.27303e-123
2.31538e-121
1.00663e-119
4.33274e-118
1.84607e-116
7.78544e-115
3.24949e-113
1.34213e-111
5.48496e-110
2.21767e-108
8.86977e-107
3.50885e-105
1.37277e-103
5.31078e-102
2.03134e-100
7.68096e-99
2.87073e-97
1.06036e-95
3.87018e-94
1.39561e-92
4.97142e-91
1.7491e-89
6.07705e-88
2.0847e-86
7.05983e-85
2.35975e-83
7.78359e-82
2.53312e-80
8.13227e-79
2.5749e-77
8.03925e-76
2.47449e-74
7.50719e-73
2.24438e-71
6.61061e-70
1.91784e-68
5.47906e-67
1.54103e-65
4.26597e-64
1.16201e-62
3.11363e-61
8.20478e-60
2.12561e-58
5.4123e-57
1.35403e-55
3.3272e-54
8.02764e-53
1.90109e-51
4.41738e-50
1.00672e-48
2.24941e-47
4.92562e-46
1.05658e-44
2.21922e-43
4.56197e-42
9.1738e-41
1.80373e-39
3.46567e-38
6.50367e-37
1.19133e-35
2.12884e-34
3.70862e-33
6.29431e-32
1.04002e-30
1.67175e-29
2.6121e-28
3.96402e-27
5.83746e-26
8.33388e-25
1.15232e-23
1.54147e-22
1.99271e-21
2.48641e-20
2.99059e-19
3.46249e-18
3.85315e-17
4.11466e-16
4.20902e-15
4.11649e-14
3.84123e-13
3.41212e-12
2.87811e-11
2.29894e-10
1.73368e-09
1.23016e-08
8.18232e-08
5.08016e-07
2.93019e-06
1.56167e-05
7.64336e-05
0.000341137
0.00137725
0.00498329
0.0159899
0.044963
0.109403
0.227528
0.400939
0.599061
0.772472
0.890597
0.955037
0.98401
0.995017
0.998623
0.999659
0.999924
0.999984
0.999997
0.999999
1
1
1
1
1
1
1
1
1
1
1
1
1
1
1
1
1
1
1
1
1
1
1
1
1
1
1
1
1
1
1
1
1
1
1
1
1
1
1
1
1
1
1
1
1
1
1
1
1
1
1
1
1
1
1
1
1
1
1
1
1
1
1
1
1
1
1
1
1
1
1
1
1
1
1
1
0.999999
0.999997
0.999984
0.999924
0.999659
0.998623
0.995017
0.98401
0.955037
0.890597
0.772472
0.599061
0.400939
0.227528
0.109403
0.044963
0.0159899
0.00498329
0.00137725
0.000341137
7.64336e-05
1.56167e-05
2.93019e-06
5.08016e-07
8.18232e-08
1.23016e-08
1.73368e-09
2.29894e-10
2.87811e-11
3.41212e-12
3.84123e-13
4.11649e-14
4.20902e-15
4.11466e-16
3.85315e-17
3.46249e-18
2.99059e-19
2.48641e-20
1.99271e-21
1.54147e-22
1.15232e-23
8.33388e-25
5.83746e-26
3.96402e-27
2.6121e-28
1.67175e-29
1.04002e-30
6.29431e-32
3.70862e-33
2.12884e-34
1.19133e-35
6.50367e-37
3.46567e-38
1.80373e-39
9.1738e-41
4.56197e-42
2.21922e-43
1.05658e-44
4.92562e-46
2.24941e-47
1.00672e-48
4.41738e-50
1.90109e-51
8.02764e-53
3.3272e-54
1.35403e-55
5.4123e-57
2.12561e-58
8.20478e-60
3.11363e-61
1.16201e-62
4.26597e-64
1.54103e-65
5.47906e-67
1.91784e-68
6.61061e-70
2.24438e-71
7.50719e-73
2.47449e-74
8.03925e-76
2.5749e-77
8.13227e-79
2.53312e-80
7.78359e-82
2.35975e-83
7.05983e-85
2.0847e-86
6.07705e-88
1.7491e-89
4.97142e-91
1.39561e-92
3.87018e-94
1.06036e-95
2.87073e-97
7.68096e-99
2.03134e-100
5.31078e-102
1.37277e-103
3.50885e-105
8.86977e-107
2.21767e-108
5.48496e-110
1.34213e-111
3.24949e-113
7.78544e-115
1.84607e-116
4.33274e-118
1.00663e-119
2.31538e-121
5.27303e-123
1.18914e-124
2.6557e-126
5.87419e-128
1.287e-129
2.79328e-131
6.00612e-133
1.27955e-134
2.70114e-136
5.65066e-138
1.17152e-139
2.40735e-141
4.90345e-143
9.90087e-145
1.98194e-146
3.93355e-148
7.74093e-150
1.51059e-151
2.92335e-153
5.61079e-155
1.0681e-156
2.01684e-158
3.77777e-160
7.01994e-162
1.29418e-163
2.36728e-165
4.29662e-167
7.73842e-169
1.3831e-170
2.45336e-172
4.31917e-174
7.54738e-176
1.30911e-177
2.25406e-179
3.8529e-181
6.53838e-183
1.10163e-184
1.84294e-186
3.06137e-188
5.04982e-190
8.27207e-192
1.34572e-193
2.17428e-195
3.48917e-197
5.56156e-199
8.80559e-201
1.38494e-202
2.16388e-204
3.35881e-206
5.17976e-208
7.93644e-210
1.20824e-211
1.82772e-213
2.74736e-215
4.10385e-217
6.09192e-219
8.98716e-221
1.3177e-222
1.92022e-224
2.78128e-226
4.00421e-228
5.73039e-230
8.15198e-232
1.15284e-233
1.62078e-235
2.26537e-237
3.14798e-239
4.34931e-241
5.97472e-243
8.16097e-245
1.10843e-246
1.49702e-248
2.01058e-250
2.68536e-252
3.56685e-254
4.71176e-256
6.19031e-258
8.08885e-260
1.05128e-261
1.35902e-263
1.74751e-265
2.23518e-267
2.84394e-269
3.59962e-271
4.53244e-273
5.67755e-275
7.0755e-277
8.77268e-279
1.08218e-280
1.32822e-282
1.62203e-284
1.97095e-286
2.38306e-288
2.86712e-290
3.4326e-292
4.08956e-294
4.84862e-296
5.72083e-298
6.71756e-300
7.85031e-302
9.13052e-304
1.05694e-305
1.21775e-307
1.39647e-309
1.59398e-311
1.81102e-313
2.04814e-315
2.30571e-317
2.58322e-319
2.831e-321
0
0
0
0
0
0
0
0
0
0
0
0
0
0
0
0
0
0
0
0
0
0
0
0
0
0
0
0
0
0
0
0
0
0
0
0
0
0
0
0
0
0
0
0
0
0
0
0
0
0
0
0
0
0
0
0
0
0
0
0
0
0
0
0
0
0
0
0
0
0
0
0
0
0
0
0
0
0
0
0
0
0
0
0
0
0
0
0
0
0
0
0
0
0
0
0
0
0
0
0
0
0
0
0
0
0
0
0
0
0
0
0
0
0
0
0
0
0
0
0
0
0
0
0
0
0
0
0
0
0
0
0
0
0
0
0
0
0
0
0
0
0
0
0
0
0
0
0
0
0
0
0
0
0
0
0
0
0
0
0
0
0
0
0
0
0
0
0
0
0
0
0
0
0
0
0
0
0
0
0
0
0
0
0
0
0
0
0
0
0
0
0
0
0
0
0
0
0
0
0
0
0
0
0
0
0
0
0
0
0
0
0
0
0
0
0
0
0
0
0
0
0
0
0
0
0
0
0
0
0
0
0
0
0
0
0
0
0
0
0
0
0
0
)
;

boundaryField
{
    sides
    {
        type            zeroGradient;
    }
    empty
    {
        type            empty;
    }
}


// ************************************************************************* //
