/*--------------------------------*- C++ -*----------------------------------*\
| =========                 |                                                 |
| \\      /  F ield         | OpenFOAM: The Open Source CFD Toolbox           |
|  \\    /   O peration     | Version:  2312                                  |
|   \\  /    A nd           | Website:  www.openfoam.com                      |
|    \\/     M anipulation  |                                                 |
\*---------------------------------------------------------------------------*/
FoamFile
{
    version     2.0;
    format      ascii;
    arch        "LSB;label=32;scalar=64";
    class       volScalarField;
    location    "4.4";
    object      T;
}
// * * * * * * * * * * * * * * * * * * * * * * * * * * * * * * * * * * * * * //

dimensions      [0 0 0 1 0 0 0];

internalField   nonuniform List<scalar> 
1000
(
1.66873e-06
1.6713e-06
1.67838e-06
1.68998e-06
1.70614e-06
1.72687e-06
1.75224e-06
1.7823e-06
1.81712e-06
1.85677e-06
1.90134e-06
1.95094e-06
2.00567e-06
2.06566e-06
2.13104e-06
2.20195e-06
2.27856e-06
2.36102e-06
2.44953e-06
2.54428e-06
2.64547e-06
2.75333e-06
2.86809e-06
2.99e-06
3.11933e-06
3.25635e-06
3.40137e-06
3.55468e-06
3.71663e-06
3.88755e-06
4.0678e-06
4.25778e-06
4.45787e-06
4.6685e-06
4.89011e-06
5.12315e-06
5.36812e-06
5.62551e-06
5.89586e-06
6.17972e-06
6.47766e-06
6.79029e-06
7.11824e-06
7.46217e-06
7.82276e-06
8.20073e-06
8.59684e-06
9.01185e-06
9.44659e-06
9.9019e-06
1.03787e-05
1.08778e-05
1.14003e-05
1.19471e-05
1.25193e-05
1.31179e-05
1.37441e-05
1.43991e-05
1.5084e-05
1.58002e-05
1.6549e-05
1.73316e-05
1.81497e-05
1.90046e-05
1.98978e-05
2.08311e-05
2.1806e-05
2.28244e-05
2.38878e-05
2.49984e-05
2.61579e-05
2.73684e-05
2.86321e-05
2.99509e-05
3.13273e-05
3.27635e-05
3.4262e-05
3.58253e-05
3.74559e-05
3.91567e-05
4.09303e-05
4.27798e-05
4.4708e-05
4.67182e-05
4.88136e-05
5.09975e-05
5.32735e-05
5.5645e-05
5.81159e-05
6.069e-05
6.33713e-05
6.6164e-05
6.90723e-05
7.21007e-05
7.52537e-05
7.85362e-05
8.19531e-05
8.55094e-05
8.92103e-05
9.30615e-05
9.70684e-05
0.000101237
0.000105573
0.000110083
0.000114773
0.000119651
0.000124722
0.000129994
0.000135474
0.00014117
0.000147089
0.00015324
0.000159632
0.000166271
0.000173169
0.000180333
0.000187773
0.000195499
0.000203521
0.000211849
0.000220494
0.000229467
0.00023878
0.000248444
0.000258471
0.000268873
0.000279665
0.000290858
0.000302466
0.000314504
0.000326985
0.000339926
0.00035334
0.000367244
0.000381654
0.000396587
0.00041206
0.00042809
0.000444696
0.000461897
0.000479711
0.000498159
0.00051726
0.000537036
0.000557508
0.000578698
0.000600629
0.000623324
0.000646806
0.000671102
0.000696235
0.000722232
0.000749118
0.000776923
0.000805672
0.000835396
0.000866123
0.000897884
0.000930709
0.000964631
0.000999683
0.0010359
0.00107331
0.00111195
0.00115186
0.00119307
0.00123563
0.00127956
0.00132492
0.00137173
0.00142005
0.00146992
0.00152137
0.00157445
0.00162921
0.00168569
0.00174395
0.00180402
0.00186597
0.00192983
0.00199567
0.00206353
0.00213347
0.00220555
0.00227981
0.00235633
0.00243515
0.00251634
0.00259996
0.00268607
0.00277473
0.00286602
0.00295999
0.00305671
0.00315626
0.0032587
0.00336411
0.00347256
0.00358411
0.00369886
0.00381687
0.00393823
0.00406301
0.0041913
0.00432318
0.00445873
0.00459804
0.0047412
0.00488829
0.0050394
0.00519464
0.00535409
0.00551784
0.00568599
0.00585864
0.00603589
0.00621784
0.0064046
0.00659626
0.00679293
0.00699472
0.00720174
0.00741409
0.0076319
0.00785526
0.0080843
0.00831914
0.00855989
0.00880666
0.00905959
0.00931879
0.00958438
0.0098565
0.0101353
0.0104208
0.0107132
0.0110127
0.0113194
0.0116333
0.0119547
0.0122837
0.0126204
0.0129649
0.0133174
0.0136781
0.014047
0.0144244
0.0148103
0.0152049
0.0156084
0.0160209
0.0164425
0.0168735
0.0173139
0.017764
0.0182238
0.0186935
0.0191733
0.0196633
0.0201637
0.0206747
0.0211963
0.0217289
0.0222724
0.0228271
0.0233932
0.0239708
0.02456
0.0251611
0.0257741
0.0263993
0.0270368
0.0276867
0.0283493
0.0290247
0.029713
0.0304145
0.0311292
0.0318573
0.032599
0.0333545
0.0341239
0.0349073
0.035705
0.036517
0.0373436
0.0381848
0.0390409
0.0399119
0.0407981
0.0416996
0.0426165
0.043549
0.0444972
0.0454612
0.0464412
0.0474374
0.0484498
0.0494787
0.050524
0.051586
0.0526648
0.0537605
0.0548732
0.0560031
0.0571502
0.0583147
0.0594966
0.0606961
0.0619133
0.0631483
0.0644011
0.0656719
0.0669607
0.0682677
0.0695928
0.0709363
0.072298
0.0736782
0.0750768
0.076494
0.0779297
0.0793841
0.0808571
0.0823488
0.0838592
0.0853884
0.0869363
0.0885031
0.0900886
0.0916929
0.093316
0.0949579
0.0966186
0.098298
0.0999961
0.101713
0.103448
0.105202
0.106975
0.108766
0.110576
0.112404
0.11425
0.116114
0.117996
0.119897
0.121815
0.123751
0.125704
0.127676
0.129664
0.13167
0.133692
0.135732
0.137788
0.139861
0.14195
0.144056
0.146177
0.148314
0.150467
0.152635
0.154818
0.157016
0.159229
0.161456
0.163697
0.165951
0.16822
0.170501
0.172796
0.175103
0.177422
0.179753
0.182097
0.184451
0.186816
0.189192
0.191579
0.193975
0.19638
0.198795
0.201219
0.203651
0.206091
0.208538
0.210993
0.213454
0.215921
0.218395
0.220873
0.223357
0.225845
0.228337
0.230832
0.233331
0.235832
0.238335
0.24084
0.243345
0.245852
0.248358
0.250864
0.253368
0.255871
0.258372
0.260871
0.263366
0.265858
0.268345
0.270827
0.273304
0.275775
0.27824
0.280697
0.283147
0.285589
0.288021
0.290445
0.292858
0.295261
0.297652
0.300032
0.3024
0.304755
0.307096
0.309423
0.311735
0.314033
0.316314
0.318579
0.320827
0.323057
0.325269
0.327463
0.329637
0.331791
0.333924
0.336037
0.338128
0.340196
0.342242
0.344265
0.346264
0.348238
0.350187
0.352111
0.354009
0.35588
0.357724
0.35954
0.361328
0.363088
0.364818
0.366518
0.368189
0.369829
0.371438
0.373015
0.37456
0.376073
0.377552
0.378999
0.380411
0.381789
0.383133
0.384442
0.385715
0.386953
0.388154
0.389319
0.390447
0.391538
0.392591
0.393606
0.394584
0.395522
0.396423
0.397284
0.398105
0.398888
0.39963
0.400333
0.400995
0.401617
0.402198
0.402739
0.403238
0.403697
0.404114
0.40449
0.404825
0.405118
0.405369
0.405578
0.405746
0.405872
0.405955
0.405997
0.405997
0.405955
0.405872
0.405746
0.405578
0.405369
0.405118
0.404825
0.40449
0.404114
0.403697
0.403238
0.402739
0.402198
0.401617
0.400995
0.400333
0.39963
0.398888
0.398105
0.397284
0.396423
0.395522
0.394584
0.393606
0.392591
0.391538
0.390447
0.389319
0.388154
0.386953
0.385715
0.384442
0.383133
0.381789
0.380411
0.378999
0.377552
0.376073
0.37456
0.373015
0.371438
0.369829
0.368189
0.366518
0.364818
0.363088
0.361328
0.35954
0.357724
0.35588
0.354009
0.352111
0.350187
0.348238
0.346264
0.344265
0.342242
0.340196
0.338128
0.336037
0.333924
0.331791
0.329637
0.327463
0.325269
0.323057
0.320827
0.318579
0.316314
0.314033
0.311735
0.309423
0.307096
0.304755
0.3024
0.300032
0.297652
0.295261
0.292858
0.290445
0.288021
0.285589
0.283147
0.280697
0.27824
0.275775
0.273304
0.270827
0.268345
0.265858
0.263366
0.260871
0.258372
0.255871
0.253368
0.250864
0.248358
0.245852
0.243345
0.24084
0.238335
0.235832
0.233331
0.230832
0.228337
0.225845
0.223357
0.220873
0.218395
0.215921
0.213454
0.210993
0.208538
0.206091
0.203651
0.201219
0.198795
0.19638
0.193975
0.191579
0.189192
0.186816
0.184451
0.182097
0.179753
0.177422
0.175103
0.172796
0.170501
0.16822
0.165951
0.163697
0.161456
0.159229
0.157016
0.154818
0.152635
0.150467
0.148314
0.146177
0.144056
0.14195
0.139861
0.137788
0.135732
0.133692
0.13167
0.129664
0.127676
0.125704
0.123751
0.121815
0.119897
0.117996
0.116114
0.11425
0.112404
0.110576
0.108766
0.106975
0.105202
0.103448
0.101713
0.0999961
0.098298
0.0966186
0.0949579
0.093316
0.0916929
0.0900886
0.0885031
0.0869363
0.0853884
0.0838592
0.0823488
0.0808571
0.0793841
0.0779297
0.076494
0.0750768
0.0736782
0.072298
0.0709363
0.0695928
0.0682677
0.0669607
0.0656719
0.0644011
0.0631483
0.0619133
0.0606961
0.0594966
0.0583147
0.0571502
0.0560031
0.0548732
0.0537605
0.0526648
0.051586
0.050524
0.0494787
0.0484498
0.0474374
0.0464412
0.0454612
0.0444972
0.043549
0.0426165
0.0416996
0.0407981
0.0399119
0.0390409
0.0381848
0.0373436
0.036517
0.035705
0.0349073
0.0341239
0.0333545
0.032599
0.0318573
0.0311292
0.0304145
0.029713
0.0290247
0.0283493
0.0276867
0.0270368
0.0263993
0.0257741
0.0251611
0.02456
0.0239708
0.0233932
0.0228271
0.0222724
0.0217289
0.0211963
0.0206747
0.0201637
0.0196633
0.0191733
0.0186935
0.0182238
0.017764
0.0173139
0.0168735
0.0164425
0.0160209
0.0156084
0.0152049
0.0148103
0.0144244
0.014047
0.0136781
0.0133174
0.0129649
0.0126204
0.0122837
0.0119547
0.0116333
0.0113194
0.0110127
0.0107132
0.0104208
0.0101353
0.0098565
0.00958438
0.00931879
0.00905959
0.00880666
0.00855989
0.00831914
0.0080843
0.00785526
0.0076319
0.00741409
0.00720174
0.00699472
0.00679293
0.00659626
0.0064046
0.00621784
0.00603589
0.00585864
0.00568599
0.00551784
0.00535409
0.00519464
0.0050394
0.00488829
0.0047412
0.00459804
0.00445873
0.00432318
0.0041913
0.00406301
0.00393823
0.00381687
0.00369886
0.00358411
0.00347256
0.00336411
0.0032587
0.00315626
0.00305671
0.00295999
0.00286602
0.00277473
0.00268607
0.00259996
0.00251634
0.00243515
0.00235633
0.00227981
0.00220555
0.00213347
0.00206353
0.00199567
0.00192983
0.00186597
0.00180402
0.00174395
0.00168569
0.00162921
0.00157445
0.00152137
0.00146992
0.00142005
0.00137173
0.00132492
0.00127956
0.00123563
0.00119307
0.00115186
0.00111195
0.00107331
0.0010359
0.000999683
0.000964631
0.000930709
0.000897884
0.000866123
0.000835396
0.000805672
0.000776923
0.000749118
0.000722232
0.000696235
0.000671102
0.000646806
0.000623324
0.000600629
0.000578698
0.000557508
0.000537036
0.00051726
0.000498159
0.000479711
0.000461897
0.000444696
0.00042809
0.00041206
0.000396587
0.000381654
0.000367244
0.00035334
0.000339926
0.000326985
0.000314504
0.000302466
0.000290858
0.000279665
0.000268873
0.000258471
0.000248444
0.00023878
0.000229467
0.000220494
0.000211849
0.000203521
0.000195499
0.000187773
0.000180333
0.000173169
0.000166271
0.000159632
0.00015324
0.000147089
0.00014117
0.000135474
0.000129994
0.000124722
0.000119651
0.000114773
0.000110083
0.000105573
0.000101237
9.70684e-05
9.30615e-05
8.92103e-05
8.55094e-05
8.19531e-05
7.85362e-05
7.52537e-05
7.21007e-05
6.90723e-05
6.6164e-05
6.33713e-05
6.069e-05
5.81159e-05
5.5645e-05
5.32735e-05
5.09975e-05
4.88136e-05
4.67182e-05
4.4708e-05
4.27798e-05
4.09303e-05
3.91567e-05
3.74559e-05
3.58253e-05
3.4262e-05
3.27635e-05
3.13273e-05
2.99509e-05
2.86321e-05
2.73684e-05
2.61579e-05
2.49984e-05
2.38878e-05
2.28244e-05
2.1806e-05
2.08311e-05
1.98978e-05
1.90046e-05
1.81497e-05
1.73316e-05
1.6549e-05
1.58002e-05
1.5084e-05
1.43991e-05
1.37441e-05
1.31179e-05
1.25193e-05
1.19471e-05
1.14003e-05
1.08778e-05
1.03787e-05
9.9019e-06
9.44659e-06
9.01185e-06
8.59684e-06
8.20073e-06
7.82276e-06
7.46217e-06
7.11824e-06
6.79029e-06
6.47766e-06
6.17972e-06
5.89586e-06
5.62551e-06
5.36812e-06
5.12315e-06
4.89011e-06
4.6685e-06
4.45787e-06
4.25778e-06
4.0678e-06
3.88755e-06
3.71663e-06
3.55468e-06
3.40137e-06
3.25635e-06
3.11933e-06
2.99e-06
2.86809e-06
2.75333e-06
2.64547e-06
2.54428e-06
2.44953e-06
2.36102e-06
2.27856e-06
2.20195e-06
2.13104e-06
2.06566e-06
2.00567e-06
1.95094e-06
1.90134e-06
1.85677e-06
1.81712e-06
1.7823e-06
1.75224e-06
1.72687e-06
1.70614e-06
1.68998e-06
1.67838e-06
1.6713e-06
1.66873e-06
)
;

boundaryField
{
    sides
    {
        type            zeroGradient;
    }
    empty
    {
        type            empty;
    }
}


// ************************************************************************* //
