/*--------------------------------*- C++ -*----------------------------------*\
| =========                 |                                                 |
| \\      /  F ield         | OpenFOAM: The Open Source CFD Toolbox           |
|  \\    /   O peration     | Version:  2312                                  |
|   \\  /    A nd           | Website:  www.openfoam.com                      |
|    \\/     M anipulation  |                                                 |
\*---------------------------------------------------------------------------*/
FoamFile
{
    version     2.0;
    format      ascii;
    arch        "LSB;label=32;scalar=64";
    class       volScalarField;
    location    "4.5";
    object      T;
}
// * * * * * * * * * * * * * * * * * * * * * * * * * * * * * * * * * * * * * //

dimensions      [0 0 0 1 0 0 0];

internalField   nonuniform List<scalar> 
1000
(
0
0
0
0
0
0
0
0
0
0
0
0
0
0
0
0
0
0
0
0
0
0
0
0
0
0
0
0
0
0
0
0
0
0
0
0
0
0
0
0
0
0
0
0
0
0
0
0
0
0
0
0
0
0
0
0
0
0
0
0
0
0
0
0
0
0
0
0
0
0
0
0
0
0
0
0
0
0
0
0
0
0
0
0
0
0
0
0
0
0
0
0
0
0
0
0
0
0
0
0
0
0
0
0
0
0
0
0
0
0
0
0
0
0
0
0
0
0
0
0
0
0
0
0
0
0
0
0
0
0
0
0
0
0
0
0
0
0
0
0
0
0
0
0
0
0
0
0
0
0
0
0
0
0
0
0
0
0
0
0
0
0
0
0
0
0
0
0
0
0
0
0
0
0
0
0
0
0
0
0
0
0
0
0
0
0
0
0
0
0
0
0
0
0
0
0
0
0
0
0
0
0
0
0
0
0
0
0
0
0
0
0
0
0
0
0
0
0
0
0
0
0
0
0
0
0
0
0
0
0
0
0
0
0
0
0
0
0
0
0
0
0
0
0
0
0
0
0
0
0
0
0
0
0
0
0
0
0
0
0
0
0
0
0
0
0
0
0
0
0
0
0
0
0
0
0
0
0
0
0
0
0
0
0
0
0
0
0
0
0
0
0
0
0
0
0
0
0
0
0
0
0
0
0
0
0
0
0
0
0
0
0
0
0
0
0
0
0
0
0
0
0
0
0
0
0
0
0
0
0
0
0
0
0
0
0
0
0
0
0
0
0
0
0
0
0
0
0
0
0
0
0
0
0
0
0
0
0
0
0
0
0
0
0
0
0
0
0
0
0
0
0
0
0
0
0
0
0
0
0
0
0
0
0
0
0
0
0
0
0
0
0
0
0
0
0
0
0
0
0
0
0
0
0
1.5724e-159
-1.05554e-143
6.34253e-136
-3.61997e-132
-7.00968e-130
-6.15158e-128
-3.00191e-126
-5.91916e-125
3.22966e-123
3.82685e-121
2.21832e-119
9.48748e-118
3.31644e-116
9.92356e-115
2.61084e-113
6.14835e-112
1.31283e-110
2.56697e-109
4.63251e-108
7.76598e-107
1.21592e-105
1.78622e-104
2.47179e-103
3.23325e-102
4.00996e-101
4.72813e-100
5.31294e-99
5.70188e-98
5.85582e-97
5.76518e-96
5.44993e-95
4.95399e-94
4.33597e-93
3.65857e-92
2.97927e-91
2.34382e-90
1.78299e-89
1.31264e-88
9.35919e-88
6.46715e-87
4.33332e-86
2.8169e-85
1.77721e-84
1.08854e-83
6.47394e-83
3.73871e-82
2.09626e-81
1.14074e-80
6.02097e-80
3.07925e-79
1.52349e-78
7.27482e-78
3.34045e-77
1.46651e-76
6.09666e-76
2.35861e-75
8.18903e-75
2.31624e-74
3.26876e-74
-2.04394e-73
-2.55479e-72
-1.87163e-71
-1.14449e-70
-6.3433e-70
-3.29292e-69
-1.62775e-68
-7.73556e-68
-3.5557e-67
-1.58737e-66
-6.90293e-66
-2.93052e-65
-1.21661e-64
-4.94574e-64
-1.9709e-63
-7.70624e-63
-2.95868e-62
-1.11614e-61
-4.13955e-61
-1.51016e-60
-5.42157e-60
-1.91621e-59
-6.67024e-59
-2.28757e-58
-7.73195e-58
-2.57645e-57
-8.46648e-57
-2.74448e-56
-8.77844e-56
-2.77135e-55
-8.63775e-55
-2.65862e-54
-8.08293e-54
-2.42798e-53
-7.2076e-53
-2.11497e-52
-6.13594e-52
-1.76041e-51
-4.99556e-51
-1.4024e-50
-3.89541e-50
-1.07075e-49
-2.91294e-49
-7.84394e-49
-2.09091e-48
-5.51783e-48
-1.44163e-47
-3.72916e-47
-9.55101e-47
-2.422e-46
-6.08112e-46
-1.51174e-45
-3.72095e-45
-9.06793e-45
-2.18795e-44
-5.22695e-44
-1.23636e-43
-2.89563e-43
-6.71533e-43
-1.54223e-42
-3.50782e-42
-7.90289e-42
-1.76387e-41
-3.90087e-41
-8.55006e-41
-1.85779e-40
-4.0028e-40
-8.55449e-40
-1.81391e-39
-3.81728e-39
-7.97491e-39
-1.65437e-38
-3.4084e-38
-6.97477e-38
-1.41769e-37
-2.86201e-37
-5.73749e-37
-1.14184e-36
-2.25501e-36
-4.41692e-36
-8.57527e-36
-1.64899e-35
-3.13814e-35
-5.90488e-35
-1.09748e-34
-2.01252e-34
-3.63671e-34
-6.46694e-34
-1.12985e-33
-1.93585e-33
-3.24552e-33
-5.30952e-33
-8.44557e-33
-1.29988e-32
-1.92249e-32
-2.7033e-32
-3.54958e-32
-4.20212e-32
-4.1103e-32
-2.27014e-32
2.9343e-32
1.37699e-31
3.28172e-31
6.17678e-31
9.85363e-31
1.31487e-30
1.29359e-30
2.59465e-31
-2.99057e-30
-1.03512e-29
-2.42904e-29
-4.69324e-29
-7.72438e-29
-1.04235e-28
-9.24556e-29
4.64448e-29
5.05934e-28
1.67514e-27
4.28769e-27
9.65341e-27
1.99987e-26
3.89327e-26
7.203e-26
1.27461e-25
2.16492e-25
3.53492e-25
5.54827e-25
8.35637e-25
1.20314e-24
1.64473e-24
2.10929e-24
2.48091e-24
2.54702e-24
1.96829e-24
2.68122e-25
-3.12374e-24
-8.71315e-24
-1.65727e-23
-2.56206e-23
-3.23576e-23
-2.88299e-23
4.14904e-25
8.25433e-23
2.61767e-22
6.05284e-22
1.20853e-21
2.19716e-21
3.72138e-21
5.93582e-21
8.95528e-21
1.2774e-20
1.7134e-20
2.13292e-20
2.39377e-20
2.24868e-20
1.30851e-20
-9.90471e-21
-5.40139e-20
-1.28412e-19
-2.42923e-19
-4.05877e-19
-6.20279e-19
-8.77756e-19
-1.14987e-18
-1.3767e-18
-1.4534e-18
-1.21627e-18
-4.31492e-19
1.2076e-18
4.06653e-18
8.52743e-18
1.49038e-17
2.32961e-17
3.33746e-17
4.4086e-17
5.33054e-17
5.74953e-17
5.13175e-17
2.69515e-17
-2.65929e-17
-1.24083e-16
-2.84167e-16
-5.26116e-16
-8.57174e-16
-1.24875e-15
-1.61929e-15
-1.85801e-15
-1.26875e-15
2.44694e-15
9.3642e-15
1.47455e-14
1.07384e-14
-1.32776e-14
-4.74081e-14
-5.28959e-14
2.9718e-15
1.11559e-13
1.68927e-13
6.1466e-14
-2.2444e-13
-4.64285e-13
-3.21477e-13
3.52555e-13
1.1638e-12
1.15224e-12
-2.15905e-13
-2.54941e-12
-3.60416e-12
-1.30751e-12
4.56677e-12
9.71979e-12
7.67876e-12
-4.7078e-12
-2.22652e-11
-2.74588e-11
-7.34777e-12
3.78272e-11
7.70694e-11
6.25902e-11
-2.94911e-11
-1.66546e-10
-2.27847e-10
-1.05602e-10
2.2543e-10
5.9789e-10
6.16474e-10
8.2281e-11
-9.87644e-10
-1.90039e-09
-1.66346e-09
2.92891e-10
3.57114e-09
5.87928e-09
4.55424e-09
-1.8369e-09
-1.16868e-08
-1.80535e-08
-1.36014e-08
5.65811e-09
3.52915e-08
5.57591e-08
4.53754e-08
-8.37623e-09
-9.72268e-08
-1.71909e-07
-1.62683e-07
-2.97254e-08
2.29742e-07
5.09671e-07
5.83552e-07
3.21344e-07
-3.61118e-07
-1.30563e-06
-1.97648e-06
-1.76633e-06
-2.89845e-07
2.46919e-06
5.60868e-06
7.13824e-06
5.45521e-06
-5.43948e-07
-1.05842e-05
-2.1469e-05
-2.66934e-05
-2.10564e-05
-6.32812e-07
3.45264e-05
7.60076e-05
0.000104305
9.84033e-05
4.46806e-05
-6.65224e-05
-0.000224696
-0.000386003
-0.000471322
-0.000416102
-0.000166752
0.000314859
0.00100205
0.00176275
0.00235221
0.00240804
0.00180116
0.000235639
-0.00244069
-0.00614146
-0.0104791
-0.0146386
-0.0172835
-0.017051
-0.0131414
-0.00393936
0.0120299
0.0359655
0.0686485
0.110339
0.160721
0.218904
0.283489
0.352678
0.424429
0.496619
0.567207
0.634377
0.696645
0.752924
0.802545
0.845246
0.881118
0.910541
0.934104
0.952525
0.96658
0.977039
0.984626
0.989987
0.99367
0.996128
0.997717
0.99871
0.999307
0.999651
0.999838
0.999934
0.999979
0.999997
1
1
1
1
1
1
1
1
1
1
1
1
1
1
1
1
1
1
1
1
1
1
0.999999
0.999999
1
1
1
1
1
1
0.999998
0.999994
0.999993
0.999995
1
1.00001
1.00002
1.00003
1.00002
1
0.999965
0.999924
0.999896
0.999902
0.999956
1.00007
1.00022
1.00039
1.00047
1.00042
1.00017
0.999684
0.998997
0.998237
0.997649
0.997593
0.998202
0.999769
1.00244
1.00615
1.01049
1.01464
1.01728
1.01704
1.01312
1.00391
0.987931
0.963983
0.931289
0.889588
0.839197
0.781007
0.716418
0.647228
0.575478
0.503292
0.43271
0.365547
0.303287
0.247018
0.197406
0.154714
0.11885
0.0894337
0.0658765
0.0474603
0.0334099
0.0229537
0.0153686
0.0100101
0.00632799
0.00387094
0.00228216
0.00128951
0.000692636
0.000349171
0.000161622
6.57554e-05
2.10425e-05
3.31342e-06
5.72027e-17
5.63798e-17
5.59201e-17
5.48782e-17
5.33132e-17
5.13203e-17
4.89926e-17
4.64152e-17
4.36645e-17
4.08076e-17
3.79029e-17
3.50002e-17
3.21411e-17
2.93599e-17
2.66839e-17
2.41338e-17
2.17251e-17
1.94681e-17
1.73688e-17
1.54297e-17
1.365e-17
1.20265e-17
1.05542e-17
9.22613e-18
8.03457e-18
6.97085e-18
6.02587e-18
5.1903e-18
4.45483e-18
3.81031e-18
3.24792e-18
2.75923e-18
2.33631e-18
1.97175e-18
1.65873e-18
1.39098e-18
1.16279e-18
9.69038e-19
8.05108e-19
6.66896e-19
5.5077e-19
4.5353e-19
3.72375e-19
3.04867e-19
2.48891e-19
2.02625e-19
1.64504e-19
1.3319e-19
1.07545e-19
8.66069e-20
6.9561e-20
5.57244e-20
4.45249e-20
3.54856e-20
2.821e-20
2.23702e-20
1.76954e-20
1.39634e-20
1.09918e-20
8.63187e-21
6.76256e-21
5.28563e-21
4.12166e-21
3.20661e-21
2.48902e-21
1.92765e-21
1.48954e-21
1.14845e-21
8.83516e-22
6.78214e-22
5.19489e-22
3.97055e-22
3.02828e-22
2.30473e-22
1.75036e-22
1.32656e-22
1.00328e-22
7.57214e-23
5.70324e-23
4.28683e-23
3.21564e-23
2.40724e-23
1.79844e-23
1.34091e-23
9.97788e-24
7.40989e-24
5.49192e-24
4.06236e-24
2.99901e-24
2.20966e-24
1.62488e-24
1.19254e-24
8.73528e-25
6.38614e-25
4.6597e-25
3.39343e-25
2.4665e-25
1.78932e-25
1.29557e-25
9.36263e-26
6.75311e-26
4.8616e-26
3.49322e-26
2.5052e-26
1.79322e-26
1.28114e-26
9.13554e-27
6.50201e-27
4.61889e-27
3.27495e-27
2.31766e-27
)
;

boundaryField
{
    sides
    {
        type            zeroGradient;
    }
    empty
    {
        type            empty;
    }
}


// ************************************************************************* //
