/*--------------------------------*- C++ -*----------------------------------*\
| =========                 |                                                 |
| \\      /  F ield         | OpenFOAM: The Open Source CFD Toolbox           |
|  \\    /   O peration     | Version:  2312                                  |
|   \\  /    A nd           | Website:  www.openfoam.com                      |
|    \\/     M anipulation  |                                                 |
\*---------------------------------------------------------------------------*/
FoamFile
{
    version     2.0;
    format      ascii;
    arch        "LSB;label=32;scalar=64";
    class       volScalarField;
    location    "4.3";
    object      T;
}
// * * * * * * * * * * * * * * * * * * * * * * * * * * * * * * * * * * * * * //

dimensions      [0 0 0 1 0 0 0];

internalField   nonuniform List<scalar> 
1000
(
0.237176
0.138139
0.16721
0.0743243
0.116552
0.0313075
0.0806382
0.0060144
0.0549978
-0.00547651
0.0355558
-0.00711557
0.0195405
-0.00254521
0.00573728
0.00493014
-0.00572834
0.0123571
-0.0139093
0.0172931
-0.0177125
0.0181238
-0.016582
0.0144154
-0.0110116
0.00710679
-0.00270789
-0.0016499
0.00571678
-0.00908202
0.0114952
-0.0127246
0.0126841
-0.0113887
0.00899258
-0.00575943
0.00204928
0.00172407
-0.00513478
0.00779649
-0.00940886
0.00979777
-0.00894057
0.00697334
-0.00417699
0.000943058
0.00227755
-0.00503647
0.00695215
-0.00776672
0.00738656
-0.0058991
0.00356195
-0.000764563
-0.00203271
0.00437318
-0.00587994
0.00632054
-0.00564838
0.00401224
-0.00173111
-0.000762727
0.0030028
-0.00457572
0.00520006
-0.00478101
0.00342932
-0.00143932
-0.000770747
0.00274489
-0.00408476
0.00453419
-0.00403433
0.00273654
-0.000968993
-0.000836464
0.0022417
-0.00290178
0.00264346
-0.00150352
-0.000283072
0.00234322
-0.00426025
0.00567996
-0.00640159
0.00643023
-0.00597648
0.00540237
-0.00512711
0.00551685
-0.00678799
0.00895035
-0.0118061
0.015005
-0.0181414
0.0208642
-0.022969
0.0244456
-0.0254644
0.0263079
-0.0272656
0.0285251
-0.0300937
0.0317752
-0.0332109
0.0339731
-0.0336836
0.0321196
-0.0292754
0.02536
-0.0207325
0.0157987
-0.0109029
0.00625298
-0.00190189
-0.00220764
0.00615522
-0.0099454
0.01344
-0.016349
0.0182888
-0.0188898
0.0179193
-0.0153748
0.0115155
-0.00681853
0.00187386
0.00274637
-0.00660082
0.00943883
-0.0111936
0.011921
-0.0117183
0.010661
-0.00878784
0.00613992
-0.00283161
-0.000883461
0.00459198
-0.00776846
0.00988531
-0.010552
0.00963377
-0.00730564
0.0040179
-0.000384237
-0.00296958
0.00554509
-0.00705516
0.00743474
-0.00679079
0.00532639
-0.00327803
0.000890339
0.00157384
-0.00381301
0.00549002
-0.00628029
0.00596082
-0.00450769
0.00215546
0.000620199
-0.00320629
0.00501568
-0.00565428
0.00503157
-0.0033748
0.00114475
0.00111071
-0.00290879
0.00393808
-0.00409363
0.00344942
-0.00219957
0.000602787
0.00105242
-0.00246756
0.00336007
-0.00351244
0.00284132
-0.00145844
-0.000315791
0.00201379
-0.00315265
0.00339436
-0.00267066
0.0012168
0.00050574
-0.00196954
0.00276043
-0.00270506
0.00190221
-0.000657375
-0.000640219
0.0016428
-0.0021279
0.00202651
-0.00140867
0.000450196
0.000603963
-0.00148058
0.00193246
-0.00180764
0.00111484
-5.11181e-05
-0.00103873
0.00177361
-0.0018822
0.00132049
-0.000301484
-0.000784878
0.00153041
-0.00167499
0.00120485
-0.000341561
-0.000565832
0.00118902
-0.00134057
0.00102093
-0.000388111
-0.00032002
0.000870706
-0.00110039
0.000950113
-0.00047592
-0.0001632
0.000744252
-0.0010483
0.000944578
-0.000457443
-0.000223615
0.000811369
-0.00104604
0.000820704
-0.000239752
-0.000426414
0.000872007
-0.00090465
0.000534037
4.40318e-05
-0.000554332
0.000778074
-0.000646879
0.000254388
0.000206867
-0.000540398
0.000624458
-0.000446952
9.56748e-05
0.00028143
-0.000530078
0.000545293
-0.000315603
-6.24981e-05
0.000416004
-0.000570998
0.000442267
-8.77873e-05
-0.000311094
0.000542796
-0.000483457
0.000169567
0.000221663
-0.000474897
0.000460266
-0.000202884
-0.000141112
0.0003818
-0.000402733
0.000215401
6.27736e-05
-0.0002829
0.000342803
-0.000228939
1.04214e-05
0.000201259
-0.000304076
0.000249491
-6.49044e-05
-0.000155306
0.000292467
-0.000266219
8.53127e-05
0.000148369
-0.000294668
0.000261545
-6.76839e-05
-0.000164853
0.00028836
-0.000226997
2.64553e-05
0.000179247
-0.000259659
0.000173069
1.28942e-05
-0.000174287
0.000214982
-0.000123104
-3.25473e-05
0.00015426
-0.000175559
9.37223e-05
3.6973e-05
-0.000139708
0.000156611
-7.88183e-05
-4.76141e-05
0.000145165
-0.000150004
5.50881e-05
7.91012e-05
-0.000160688
0.000130324
-7.39606e-06
-0.000120031
0.000158961
-8.19281e-05
-5.1676e-05
0.000141648
-0.000124116
1.83182e-05
9.2642e-05
-0.000128383
7.0271e-05
3.13372e-05
-0.000101096
9.46815e-05
-2.4873e-05
-5.51027e-05
9.17008e-05
-6.46627e-05
-4.32342e-06
6.80709e-05
-8.37217e-05
4.00289e-05
3.33819e-05
-8.35102e-05
7.11773e-05
-3.06278e-06
-6.90078e-05
8.67956e-05
-3.41909e-05
-4.64357e-05
8.79886e-05
-5.59009e-05
-2.15286e-05
7.79024e-05
-6.69005e-05
1.44656e-06
6.04465e-05
-6.80426e-05
1.99939e-05
3.93717e-05
-6.14996e-05
3.32123e-05
1.7758e-05
-5.00035e-05
4.13594e-05
-2.15741e-06
-3.62604e-05
4.53421e-05
-1.89302e-05
-2.25612e-05
4.62612e-05
-3.17609e-05
-1.05638e-05
4.50818e-05
-4.03406e-05
-1.20852e-06
4.24584e-05
-4.47429e-05
5.26571e-06
3.87119e-05
-4.53721e-05
9.22017e-06
3.39312e-05
-4.29457e-05
1.14399e-05
2.81539e-05
-3.84651e-05
1.28926e-05
2.15602e-05
-3.31296e-05
1.44516e-05
1.4611e-05
-2.81665e-05
1.66352e-05
8.06449e-06
-2.45882e-05
1.94362e-05
2.83833e-06
-2.29347e-05
2.23122e-05
-2.61379e-07
-2.30988e-05
2.43781e-05
-8.58762e-07
-2.43328e-05
2.47662e-05
7.61334e-07
-2.54949e-05
2.30416e-05
3.64921e-06
-2.54945e-05
1.94919e-05
6.48242e-06
-2.37829e-05
1.51195e-05
8.0911e-06
-2.06616e-05
1.12683e-05
8.00501e-06
-1.72041e-05
8.99502e-06
6.73147e-06
-1.47444e-05
8.48236e-06
5.54225e-06
-1.41303e-05
8.84787e-06
5.78224e-06
-1.51374e-05
8.55902e-06
8.0206e-06
-1.64519e-05
6.3248e-06
1.15583e-05
-1.63552e-05
1.97489e-06
1.46973e-05
-1.37916e-05
-3.28145e-06
1.57362e-05
-9.13854e-06
-7.52273e-06
1.41075e-05
-4.05703e-06
-9.38068e-06
1.08221e-05
-3.74921e-07
-9.02459e-06
7.75333e-06
1.26664e-06
-8.01832e-06
6.1593e-06
1.90817e-06
-7.98961e-06
5.59968e-06
3.33402e-06
-9.10542e-06
4.29348e-06
6.32538e-06
-9.74522e-06
8.28868e-07
9.63909e-06
-7.90437e-06
-4.21131e-06
1.08603e-05
-3.23883e-06
-8.36799e-06
8.6032e-06
2.23141e-06
-9.3556e-06
4.00497e-06
5.71965e-06
-7.19555e-06
-1.76012e-07
6.19818e-06
-4.15098e-06
-2.18343e-06
5.19278e-06
-2.29259e-06
-2.83509e-06
4.77017e-06
-1.29945e-06
-4.08966e-06
4.88543e-06
7.78302e-07
-6.10589e-06
3.4231e-06
4.43845e-06
-6.52376e-06
-7.27386e-07
7.21201e-06
-3.36653e-06
-5.34204e-06
6.18764e-06
1.84399e-06
-6.77774e-06
1.8027e-06
5.17206e-06
-4.23749e-06
-2.24848e-06
4.73351e-06
-7.29646e-07
-3.38415e-06
2.644e-06
9.49805e-07
-2.91086e-06
1.51549e-06
1.61214e-06
-3.0807e-06
6.3107e-07
3.24171e-06
-2.9497e-06
-2.02872e-06
4.55203e-06
-8.16312e-08
-4.96853e-06
2.38315e-06
4.1524e-06
-4.19178e-06
-2.43232e-06
5.04725e-06
3.60625e-07
-4.81351e-06
1.47715e-06
3.66868e-06
-2.62872e-06
-2.00928e-06
2.8755e-06
3.12662e-07
-2.253e-06
9.97058e-07
1.00224e-06
-1.64517e-06
5.21176e-07
1.54833e-06
-1.9488e-06
-8.03305e-07
2.98501e-06
-3.63468e-07
-3.45998e-06
1.66557e-06
3.34487e-06
-2.82567e-06
-2.7342e-06
3.62928e-06
1.80624e-06
-3.95517e-06
-7.74571e-07
3.78158e-06
-1.57634e-07
-3.17254e-06
8.32265e-07
2.25139e-06
-1.15605e-06
-1.16947e-06
1.10525e-06
7.68136e-08
-7.17958e-07
9.00618e-07
7.83313e-08
-1.67463e-06
7.02899e-07
2.19949e-06
-1.50763e-06
-2.46888e-06
2.22658e-06
2.50749e-06
-2.77098e-06
-2.35989e-06
3.07935e-06
2.07884e-06
-3.11995e-06
-1.7152e-06
2.8898e-06
1.31034e-06
-2.41154e-06
-8.92011e-07
1.72901e-06
4.7352e-07
-9.0246e-07
-5.6035e-08
3.70756e-09
-3.66643e-07
8.88779e-07
8.01698e-07
-1.69502e-06
-1.25034e-06
2.33931e-06
1.70142e-06
-2.75695e-06
-2.12701e-06
2.90193e-06
2.48106e-06
-2.75509e-06
-2.70241e-06
2.33169e-06
2.72282e-06
-1.68671e-06
-2.47993e-06
9.15462e-07
1.93401e-06
-1.4743e-07
-1.08595e-06
-4.68723e-07
-7.56193e-09
7.8922e-07
1.22681e-06
-7.06448e-07
-2.39504e-06
1.82472e-07
3.30162e-06
7.23312e-07
-3.74314e-06
-1.84261e-06
3.57767e-06
2.91284e-06
-2.78118e-06
-3.62423e-06
1.4889e-06
3.69759e-06
-1.72318e-09
-2.97926e-06
-1.25905e-06
1.52705e-06
1.85367e-06
3.4775e-07
-1.46789e-06
-2.11611e-06
6.01464e-08
3.16199e-06
2.04574e-06
-2.99265e-06
-4.18338e-06
1.47072e-06
5.51857e-06
1.02673e-06
-5.35761e-06
-3.62503e-06
3.49725e-06
5.20722e-06
-4.60763e-07
-4.87541e-06
-2.54623e-06
2.46029e-06
4.04931e-06
1.17844e-06
-3.00784e-06
-4.3145e-06
-4.8128e-07
5.07195e-06
4.89931e-06
-2.48359e-06
-7.78793e-06
-2.64144e-06
6.99849e-06
7.69076e-06
-2.18236e-06
-9.42537e-06
-4.41874e-06
6.01883e-06
8.74532e-06
1.19147e-06
-7.32359e-06
-7.70609e-06
1.01652e-07
8.35488e-06
8.40503e-06
-1.2697e-06
-1.13469e-05
-9.44535e-06
4.64868e-06
1.52951e-05
8.40782e-06
-9.61742e-06
-1.76856e-05
-5.49047e-06
1.35459e-05
1.81468e-05
3.3522e-06
-1.52923e-05
-1.90427e-05
-3.92374e-06
1.64618e-05
2.27075e-05
6.56238e-06
-1.91804e-05
-2.90869e-05
-9.56568e-06
2.33867e-05
3.63565e-05
1.28855e-05
-2.65625e-05
-4.32512e-05
-1.89686e-05
2.55857e-05
5.01522e-05
3.11077e-05
-1.82334e-05
-5.76272e-05
-5.10524e-05
2.77492e-06
6.35996e-05
7.75155e-05
2.34613e-05
-6.1191e-05
-0.000105354
-6.40787e-05
3.85729e-05
0.000123929
0.000119812
1.82789e-05
-0.00011417
-0.00017993
-0.000117883
4.75971e-05
0.000210549
0.000246888
0.000103672
-0.000147969
-0.000343992
-0.000332237
-8.19737e-05
0.000279244
0.000529995
0.000483719
0.000108225
-0.000431049
-0.000834638
-0.000820106
-0.000291958
0.000563349
0.00132667
0.0015354
0.000926589
-0.000388641
-0.0019107
-0.00291561
-0.00274293
-0.00110554
0.00169633
0.0047565
0.00678198
0.00650581
0.00317126
-0.00306504
-0.010932
-0.0180985
-0.0214707
-0.0176693
-0.00358959
0.0230711
0.0634339
0.117276
0.183093
0.258344
0.339801
0.423951
0.507373
0.587076
0.660711
0.72667
0.784073
0.832685
0.872792
0.905073
0.930456
0.949979
0.964674
0.975496
0.983292
0.988794
0.992609
0.995217
0.996968
0.998113
0.998835
0.999279
0.99956
0.999748
0.999873
0.99994
0.99996
0.999958
0.999963
0.999988
1.00002
1.00003
1.00001
0.999976
0.999965
0.999988
1.00002
1.00004
1.00002
0.999976
0.999949
0.999967
1.00002
1.00006
1.00005
0.999995
0.999935
0.999924
0.999979
1.00006
1.0001
1.00006
0.999964
0.999878
0.999879
0.999979
1.00011
1.00018
1.00012
0.99995
0.999788
0.999755
0.999899
1.00015
1.00034
1.00033
1.00008
0.999723
0.999469
0.999513
0.999891
1.00043
1.00084
1.00082
1.00029
0.999436
0.998677
0.998467
0.999071
1.00038
1.00191
1.00292
1.00275
1.0011
0.998299
0.995243
0.993222
0.993498
0.996827
1.00306
1.01093
1.0181
1.02148
1.01767
1.00358
0.976925
0.93657
0.882731
0.816909
0.74165
0.660192
0.576051
0.492634
0.412928
0.339285
0.273321
0.215924
0.167322
0.127217
0.0949269
0.069534
0.0500122
0.0353287
0.024516
0.0167158
0.0112007
0.00737691
0.00477617
0.00304031
0.00190299
0.00117132
0.000709025
0.000422102
0.000247146
0.000142321
8.06034e-05
4.48935e-05
2.45881e-05
1.32413e-05
7.01022e-06
3.64797e-06
1.86546e-06
9.37167e-07
4.62375e-07
2.23945e-07
1.06425e-07
4.95954e-08
2.26479e-08
1.01257e-08
4.42752e-09
1.89087e-09
7.87385e-10
3.18999e-10
1.25372e-10
4.76075e-11
1.73662e-11
6.03182e-12
1.96568e-12
5.84621e-13
1.48885e-13
2.601e-14
-1.95942e-15
-4.98667e-15
-3.2762e-15
-1.63697e-15
-7.07531e-16
-2.74584e-16
-9.64018e-17
-3.02148e-17
-8.06544e-18
-1.55724e-18
-9.24276e-21
1.95171e-19
1.32501e-19
6.37427e-20
2.56109e-20
8.9159e-21
2.6608e-21
6.31894e-22
8.20504e-23
-2.47212e-23
-2.60477e-23
-1.37336e-23
-5.62755e-24
-1.92643e-24
-5.45509e-25
-1.1412e-25
-6.86503e-27
9.19532e-27
6.52981e-27
2.96997e-27
1.07194e-27
3.14365e-28
6.87055e-29
5.78957e-30
-4.32569e-30
-3.26658e-30
-1.47394e-30
-5.1466e-31
-1.41756e-31
-2.68164e-32
-1.42454e-34
2.87135e-33
1.69751e-33
6.76791e-34
2.08754e-34
4.75939e-35
4.95502e-36
-2.2561e-36
-1.81844e-36
-7.95961e-37
-2.59257e-37
-6.27152e-38
-8.13371e-39
1.98205e-39
1.95185e-39
8.81073e-40
2.8742e-40
6.83933e-41
8.28697e-42
-2.40992e-42
-2.15491e-42
-9.29593e-43
-2.87652e-43
-6.24551e-44
-4.97894e-45
3.52164e-45
2.37344e-45
9.17498e-46
2.54372e-46
4.49987e-47
-1.00395e-48
-4.88155e-48
-2.45748e-48
-8.12784e-49
-1.87365e-49
-1.9611e-50
7.65687e-51
5.79247e-51
2.24873e-51
6.05701e-52
9.83361e-53
-6.47146e-54
-1.23942e-53
-5.65227e-54
-1.70014e-54
-3.33418e-55
-1.11604e-56
2.47984e-56
1.33177e-56
4.34625e-57
9.43775e-58
7.39183e-59
-4.81584e-59
-3.01084e-59
-1.03861e-59
-2.37863e-60
-2.35632e-61
9.52309e-62
6.63164e-62
2.40334e-62
3.9087e-63
)
;

boundaryField
{
    sides
    {
        type            zeroGradient;
    }
    empty
    {
        type            empty;
    }
}


// ************************************************************************* //
