/*--------------------------------*- C++ -*----------------------------------*\
| =========                 |                                                 |
| \\      /  F ield         | OpenFOAM: The Open Source CFD Toolbox           |
|  \\    /   O peration     | Version:  2312                                  |
|   \\  /    A nd           | Website:  www.openfoam.com                      |
|    \\/     M anipulation  |                                                 |
\*---------------------------------------------------------------------------*/
FoamFile
{
    version     2.0;
    format      ascii;
    arch        "LSB;label=32;scalar=64";
    class       volScalarField;
    location    "4.7";
    object      T;
}
// * * * * * * * * * * * * * * * * * * * * * * * * * * * * * * * * * * * * * //

dimensions      [0 0 0 1 0 0 0];

internalField   nonuniform List<scalar> 
1000
(
0
0
0
0
0
0
0
0
0
0
0
0
0
0
0
0
0
0
0
0
0
0
0
0
0
0
0
0
0
0
0
0
0
0
0
0
0
0
0
0
0
0
0
0
0
0
0
0
0
0
0
0
0
0
0
0
0
0
0
0
0
0
0
0
0
0
0
0
0
0
0
0
0
0
0
0
0
0
0
0
0
0
0
0
0
0
0
0
0
0
0
0
0
0
0
0
0
0
0
0
0
0
0
0
0
0
0
0
0
0
0
0
0
0
0
0
0
0
0
0
0
0
0
0
0
0
0
0
0
0
0
0
0
0
0
0
0
0
0
0
0
0
0
0
0
0
0
0
0
0
0
0
0
0
0
0
0
0
0
0
0
0
0
0
0
0
0
0
0
0
0
0
0
0
0
0
0
0
0
0
0
0
0
0
0
0
0
0
0
0
0
0
0
0
0
0
0
0
0
0
0
0
0
0
0
0
0
0
0
0
0
0
0
0
0
0
0
0
0
0
0
0
0
7.36158e-322
5.2865e-320
3.47923e-318
2.27641e-316
1.48306e-314
9.62089e-313
6.21453e-311
3.99696e-309
2.55959e-307
1.63201e-305
1.03604e-303
6.54823e-302
4.12054e-300
2.58142e-298
1.61001e-296
9.99664e-295
6.1791e-293
3.80218e-291
2.32898e-289
1.42009e-287
8.61936e-286
5.2075e-284
3.13163e-282
1.87451e-280
1.11679e-278
6.62237e-277
3.9084e-275
2.29572e-273
1.34203e-271
7.80767e-270
4.52045e-268
2.60455e-266
1.49336e-264
8.5205e-263
4.83752e-261
2.73292e-259
1.53626e-257
8.59264e-256
4.78188e-254
2.6477e-252
1.45857e-250
7.9939e-249
4.35866e-247
2.36427e-245
1.27578e-243
6.84829e-242
3.65677e-240
1.94228e-238
1.02615e-236
5.39241e-235
2.81846e-233
1.46516e-231
7.57512e-230
3.89503e-228
1.99175e-226
1.01285e-224
5.12191e-223
2.57559e-221
1.28785e-219
6.40303e-218
3.16533e-216
1.55579e-214
7.60269e-213
3.69361e-211
1.78397e-209
8.56561e-208
4.08836e-206
1.93974e-204
9.14795e-203
4.28819e-201
1.99791e-199
9.25155e-198
4.25765e-196
1.94726e-194
8.85037e-193
3.99725e-191
1.79394e-189
7.9998e-188
3.54453e-186
1.56036e-184
6.82437e-183
2.96516e-181
1.27986e-179
5.48764e-178
2.3372e-176
9.88724e-175
4.15432e-173
1.7336e-171
7.1846e-170
2.9569e-168
1.20845e-166
4.90407e-165
1.97605e-163
7.90549e-162
3.13997e-160
1.23812e-158
4.8464e-157
1.88308e-155
7.26246e-154
2.77998e-152
1.05613e-150
3.9818e-149
1.48972e-147
5.53054e-146
2.03722e-144
7.44538e-143
2.69953e-141
9.70983e-140
3.4644e-138
1.22605e-136
4.30348e-135
1.49807e-133
5.1715e-132
1.77026e-130
6.00848e-129
2.02192e-127
6.7453e-126
2.23071e-124
7.31227e-123
2.37572e-121
7.64957e-120
2.44083e-118
7.71722e-117
2.41751e-115
7.50276e-114
2.30664e-112
7.02428e-111
2.11859e-109
6.32812e-108
1.87171e-106
5.48149e-105
1.5893e-103
4.56161e-102
1.29595e-100
3.64389e-99
1.01392e-97
2.7916e-96
7.60435e-95
2.04918e-93
5.462e-92
1.43988e-90
3.75356e-89
9.675e-88
2.46541e-86
6.2101e-85
1.54603e-83
3.80352e-82
9.24565e-81
2.22029e-79
5.26662e-78
1.23378e-76
2.85403e-75
6.51806e-74
1.46942e-72
3.26936e-71
7.17783e-70
1.55473e-68
3.32176e-67
6.99915e-66
1.45412e-64
2.97814e-63
6.01153e-62
1.19571e-60
2.343e-59
4.52188e-58
8.59341e-57
1.60769e-55
2.96021e-54
5.363e-53
9.55747e-52
1.67496e-50
2.88582e-49
4.88656e-48
8.12969e-47
1.32844e-45
2.13137e-44
3.35645e-43
5.18617e-42
7.85953e-41
1.16778e-39
1.70048e-38
2.4257e-37
3.38824e-36
4.63216e-35
6.19526e-34
8.1019e-33
1.03548e-31
1.29267e-30
1.57536e-29
1.8731e-28
2.1715e-27
2.45296e-26
2.69809e-25
2.88763e-24
3.0048e-23
3.03757e-22
2.98061e-21
2.83636e-20
2.61503e-19
2.33351e-18
2.01324e-17
1.67737e-16
1.34797e-15
1.04346e-14
7.76978e-14
5.5567e-13
3.81062e-12
2.50139e-11
1.56875e-10
9.38025e-10
5.33576e-09
2.88034e-08
1.47164e-07
7.09593e-07
3.21874e-06
1.36871e-05
5.43532e-05
0.000200721
0.000686138
0.00216023
0.00623025
0.0163658
0.0389271
0.0833681
0.159996
0.274364
0.420575
0.579425
0.725636
0.840004
0.916632
0.961073
0.983634
0.99377
0.99784
0.999314
0.999799
0.999946
0.999986
0.999997
0.999999
1
1
1
1
1
1
1
1
1
1
1
1
1
1
1
1
1
1
1
1
1
1
1
1
1
1
1
1
1
1
1
1
1
1
1
1
1
1
1
1
1
1
1
1
1
1
1
1
1
1
1
1
1
1
1
1
1
1
1
1
1
1
1
1
1
1
1
1
1
1
1
1
0.999999
0.999997
0.999986
0.999946
0.999799
0.999314
0.99784
0.99377
0.983634
0.961073
0.916632
0.840004
0.725636
0.579425
0.420575
0.274364
0.159996
0.0833681
0.0389271
0.0163658
0.00623025
0.00216023
0.000686138
0.000200721
5.43532e-05
1.36871e-05
3.21874e-06
7.09593e-07
1.47164e-07
2.88034e-08
5.33576e-09
9.38025e-10
1.56875e-10
2.50139e-11
3.81062e-12
5.5567e-13
7.76978e-14
1.04346e-14
1.34797e-15
1.67737e-16
2.01324e-17
2.33351e-18
2.61503e-19
2.83636e-20
2.98061e-21
3.03757e-22
3.0048e-23
2.88763e-24
2.69809e-25
2.45296e-26
2.1715e-27
1.8731e-28
1.57536e-29
1.29267e-30
1.03548e-31
8.1019e-33
6.19526e-34
4.63216e-35
3.38824e-36
2.4257e-37
1.70048e-38
1.16778e-39
7.85953e-41
5.18617e-42
3.35645e-43
2.13137e-44
1.32844e-45
8.12969e-47
4.88656e-48
2.88582e-49
1.67496e-50
9.55747e-52
5.363e-53
2.96021e-54
1.60769e-55
8.59341e-57
4.52188e-58
2.343e-59
1.19571e-60
6.01153e-62
2.97814e-63
1.45412e-64
6.99915e-66
3.32176e-67
1.55473e-68
7.17783e-70
3.26936e-71
1.46942e-72
6.51806e-74
2.85403e-75
1.23378e-76
5.26662e-78
2.22029e-79
9.24565e-81
3.80352e-82
1.54603e-83
6.2101e-85
2.46541e-86
9.675e-88
3.75356e-89
1.43988e-90
5.462e-92
2.04918e-93
7.60435e-95
2.7916e-96
1.01392e-97
3.64389e-99
1.29595e-100
4.56161e-102
1.5893e-103
5.48149e-105
1.87171e-106
6.32812e-108
2.11859e-109
7.02428e-111
2.30664e-112
7.50276e-114
2.41751e-115
7.71722e-117
2.44083e-118
7.64957e-120
2.37572e-121
7.31227e-123
2.23071e-124
6.7453e-126
2.02192e-127
6.00848e-129
1.77026e-130
5.1715e-132
1.49807e-133
4.30348e-135
1.22605e-136
3.4644e-138
9.70983e-140
2.69953e-141
7.44538e-143
2.03722e-144
5.53054e-146
1.48972e-147
3.9818e-149
1.05613e-150
2.77998e-152
7.26246e-154
1.88308e-155
4.8464e-157
1.23812e-158
3.13997e-160
7.90549e-162
1.97605e-163
4.90407e-165
1.20845e-166
2.9569e-168
7.1846e-170
1.7336e-171
4.15432e-173
9.88724e-175
2.3372e-176
5.48764e-178
1.27986e-179
2.96516e-181
6.82437e-183
1.56036e-184
3.54453e-186
7.9998e-188
1.79394e-189
3.99725e-191
8.85037e-193
1.94726e-194
4.25765e-196
9.25155e-198
1.99791e-199
4.28819e-201
9.14795e-203
1.93974e-204
4.08836e-206
8.56561e-208
1.78397e-209
3.69361e-211
7.60269e-213
1.55579e-214
3.16533e-216
6.40303e-218
1.28785e-219
2.57559e-221
5.12191e-223
1.01285e-224
1.99175e-226
3.89503e-228
7.57512e-230
1.46516e-231
2.81846e-233
5.39241e-235
1.02615e-236
1.94228e-238
3.65677e-240
6.84829e-242
1.27578e-243
2.36427e-245
4.35866e-247
7.9939e-249
1.45857e-250
2.6477e-252
4.78188e-254
8.59264e-256
1.53626e-257
2.73292e-259
4.83752e-261
8.5205e-263
1.49336e-264
2.60455e-266
4.52045e-268
7.80767e-270
1.34203e-271
2.29572e-273
3.9084e-275
6.62237e-277
1.11679e-278
1.87451e-280
3.13163e-282
5.2075e-284
8.61936e-286
1.42009e-287
2.32898e-289
3.80218e-291
6.1791e-293
9.99664e-295
1.61001e-296
2.58142e-298
4.12054e-300
6.54823e-302
1.03604e-303
1.63201e-305
2.55959e-307
3.99696e-309
6.21453e-311
9.62089e-313
1.48306e-314
2.27641e-316
3.47922e-318
5.2865e-320
7.36158e-322
0
0
0
0
0
0
0
0
0
0
0
0
0
0
0
0
0
0
0
0
0
0
0
0
0
0
0
0
0
0
0
0
0
0
0
0
0
0
0
0
0
0
0
0
0
0
0
0
0
0
0
0
0
0
0
0
0
0
0
0
0
0
0
0
0
0
0
0
0
0
0
0
0
0
0
0
0
0
0
0
0
0
0
0
0
0
0
0
0
0
0
0
0
0
0
0
0
0
0
0
0
0
0
0
0
0
0
0
0
0
0
0
0
0
0
0
0
0
0
0
0
0
0
0
0
0
0
0
0
0
0
0
0
0
0
0
0
0
0
0
0
0
0
0
0
0
0
0
0
0
0
0
0
0
0
0
0
0
0
0
0
0
0
0
0
0
0
0
0
0
0
0
0
0
0
0
0
0
0
0
0
0
0
0
0
0
0
0
0
0
0
0
0
0
0
0
0
0
0
0
0
0
0
0
0
0
0
0
0
0
0
0
0
0
0
0
0
0
0
0
0
0
0
)
;

boundaryField
{
    sides
    {
        type            zeroGradient;
    }
    empty
    {
        type            empty;
    }
}


// ************************************************************************* //
