/*--------------------------------*- C++ -*----------------------------------*\
| =========                 |                                                 |
| \\      /  F ield         | OpenFOAM: The Open Source CFD Toolbox           |
|  \\    /   O peration     | Version:  2312                                  |
|   \\  /    A nd           | Website:  www.openfoam.com                      |
|    \\/     M anipulation  |                                                 |
\*---------------------------------------------------------------------------*/
FoamFile
{
    version     2.0;
    format      ascii;
    arch        "LSB;label=32;scalar=64";
    class       volScalarField;
    location    "0.7";
    object      T;
}
// * * * * * * * * * * * * * * * * * * * * * * * * * * * * * * * * * * * * * //

dimensions      [0 0 0 1 0 0 0];

internalField   nonuniform List<scalar> 
1000
(
0
0
0
0
0
0
0
0
0
0
0
0
0
0
0
0
0
0
0
0
0
0
0
0
0
0
0
0
0
0
0
0
0
0
0
0
0
0
0
0
0
0
0
0
0
0
0
0
0
0
0
0
0
0
0
0
0
0
0
0
0
0
0
0
0
0
0
0
0
0
0
0
0
0
0
0
0
0
0
0
0
0
0
0
0
0
0
0
0
0
0
0
0
0
0
0
0
0
0
0
0
0
0
0
0
0
0
0
0
0
0
0
0
0
0
0
0
0
0
0
0
0
0
0
0
0
0
0
0
0
0
0
0
0
0
0
0
0
0
0
0
0
0
0
0
0
0
0
0
0
0
0
0
0
0
0
0
0
0
0
0
0
0
0
0
0
0
0
0
0
0
0
0
0
0
0
0
0
0
0
0
0
0
0
0
0
0
0
0
0
0
0
0
0
0
0
0
0
0
0
0
0
0
0
0
0
0
0
0
0
0
0
0
0
0
0
0
0
0
0
0
0
0
0
0
0
0
0
0
0
0
0
0
0
0
0
0
0
0
0
0
0
0
0
0
0
0
0
0
0
0
0
0
0
0
0
0
0
0
0
0
0
0
0
0
0
0
0
0
0
0
0
0
0
0
0
0
0
0
0
0
0
0
0
0
0
0
0
0
0
0
0
0
0
0
0
0
0
0
0
0
0
0
0
0
0
0
0
0
0
0
0
0
0
0
0
0
0
0
0
0
0
0
0
0
0
0
0
0
0
0
0
0
0
0
0
0
0
0
0
0
0
0
0
0
0
0
0
0
0
0
0
0
0
0
0
0
0
0
0
0
0
0
0
0
0
0
0
0
0
0
0
0
0
0
0
0
0
0
0
0
0
0
0
0
0
0
0
0
0
0
0
0
0
0
0
0
0
0
0
0
0
0
0
0
0
0
0
0
0
0
0
0
0
0
0
0
0
0
0
0
0
0
0
0
0
0
0
0
0
0
0
0
0
0
0
0
0
0
0
0
0
0
0
0
0
0
0
0
0
1.02607e-20
4.67329e-19
1.0662e-17
1.6247e-16
1.86031e-15
1.70729e-14
1.30822e-13
8.60884e-13
4.96665e-12
2.55204e-11
1.18255e-10
4.99157e-10
1.93533e-09
6.94085e-09
2.31633e-08
7.23025e-08
2.12042e-07
5.86574e-07
1.53596e-06
3.81901e-06
9.04203e-06
2.04377e-05
4.42038e-05
9.16796e-05
0.000182693
0.000350422
0.000648054
0.00115733
0.0019988
0.00334305
0.00542173
0.00853672
0.0130649
0.0194569
0.0282261
0.039929
0.055134
0.0743811
0.0981361
0.126742
0.160373
0.199
0.242369
0.289991
0.341165
0.395007
0.450498
0.506547
0.562054
0.615976
0.667378
0.715482
0.759692
0.79961
0.835032
0.865934
0.892446
0.914823
0.933409
0.948604
0.960836
0.970534
0.978109
0.983939
0.988363
0.991671
0.994112
0.995887
0.997162
0.998064
0.998695
0.999131
0.999428
0.999627
0.99976
0.999847
0.999904
0.99994
0.999963
0.999977
0.999986
0.999992
0.999995
0.999997
0.999998
0.999999
0.999999
1
1
1
1
1
1
1
1
1
1
1
1
1
1
1
1
1
1
1
1
1
1
1
1
1
1
1
1
1
1
0.999999
0.999998
0.999996
0.999991
0.99998
0.999956
0.999908
0.999817
0.99965
0.999352
0.998843
0.998001
0.996657
0.994578
0.991463
0.986935
0.980543
0.971774
0.960071
0.944866
0.925619
0.901864
0.873258
0.839627
0.801
0.757631
0.710009
0.658835
0.604993
0.549502
0.493453
0.437946
0.384024
0.332622
0.284518
0.240308
0.20039
0.164968
0.134066
0.107554
0.0851768
0.0665911
0.0513962
0.0391642
0.0294662
0.0218912
0.0160607
0.0116374
0.0083288
0.0058884
0.0041129
0.00283848
0.00193581
0.00130476
0.000869252
0.000572476
0.000372753
0.000239989
0.000152799
9.62196e-05
5.99338e-05
3.69317e-05
2.25164e-05
1.35838e-05
8.10991e-06
4.79222e-06
2.80306e-06
1.62312e-06
9.3056e-07
5.28273e-07
2.96989e-07
1.65363e-07
9.12001e-08
4.98264e-08
2.69696e-08
1.44639e-08
7.68655e-09
4.04818e-09
2.11305e-09
1.09326e-09
5.60713e-10
2.85103e-10
1.43729e-10
7.18474e-11
3.56152e-11
1.75088e-11
8.53711e-12
4.1289e-12
1.9809e-12
9.42826e-13
4.45219e-13
2.08605e-13
9.69876e-14
4.47488e-14
2.04905e-14
9.31242e-15
4.20089e-15
1.88113e-15
8.36233e-16
3.69058e-16
1.61715e-16
7.03599e-17
3.0398e-17
1.30419e-17
5.55694e-18
2.35158e-18
9.88415e-19
4.12668e-19
1.71147e-19
7.05132e-20
2.88622e-20
1.17374e-20
4.74265e-21
1.90415e-21
7.5969e-22
3.01196e-22
1.18676e-22
4.64731e-23
1.80878e-23
6.99742e-24
2.69079e-24
1.02857e-24
3.90858e-25
1.47658e-25
5.54588e-26
2.07098e-26
7.68948e-27
2.83891e-27
1.04222e-27
3.80485e-28
1.38136e-28
4.98757e-29
1.79101e-29
6.39665e-30
2.27233e-30
8.02923e-31
2.82212e-31
9.86718e-32
3.43198e-32
1.18754e-32
4.08807e-33
1.40014e-33
4.77118e-34
1.61769e-34
5.45755e-35
1.83209e-35
6.12009e-36
2.03445e-36
6.73024e-37
2.21575e-37
7.25997e-38
2.36748e-38
7.684e-39
2.48231e-39
7.98183e-40
2.55472e-40
8.13938e-41
2.58143e-41
8.1501e-42
2.56161e-42
8.01536e-43
2.49693e-43
7.74419e-44
2.39136e-44
7.35231e-45
2.25075e-45
6.86065e-46
2.08234e-46
6.29358e-47
1.89415e-47
5.67696e-48
1.69438e-48
5.03632e-49
1.49085e-49
4.39522e-50
1.29053e-50
3.77405e-51
1.09928e-51
3.18919e-52
9.21586e-53
2.65268e-53
7.60567e-54
2.17222e-54
6.1801e-55
1.75155e-55
4.94529e-56
1.39096e-56
3.89766e-57
1.08809e-57
3.0263e-58
8.38592e-59
2.31521e-59
6.36859e-60
1.74549e-60
4.76671e-61
1.29706e-61
3.51682e-62
9.50161e-63
2.55805e-63
6.8627e-64
1.8347e-64
4.88793e-65
1.29773e-65
3.43363e-66
9.05395e-67
2.37929e-67
6.23147e-68
1.62657e-68
4.23161e-69
1.09722e-69
2.83563e-70
7.30424e-71
1.87535e-71
4.79928e-72
1.22424e-72
3.11285e-73
7.88971e-74
1.99334e-74
5.02027e-75
1.26039e-75
3.15444e-76
7.87019e-77
1.9575e-77
4.85378e-78
1.19985e-78
2.95696e-79
7.26517e-80
1.77965e-80
4.34628e-81
1.05828e-81
2.56918e-82
6.21872e-83
1.50082e-83
3.61146e-84
8.66505e-85
2.073e-85
4.94509e-86
1.17625e-86
2.78988e-87
6.59836e-88
1.55617e-88
3.65978e-89
8.58291e-90
2.00726e-90
4.6813e-91
1.08875e-91
2.52522e-92
5.84091e-93
1.34735e-93
3.09957e-94
7.11135e-95
1.62718e-95
3.71331e-96
8.45145e-97
1.91845e-97
4.34338e-98
9.80766e-99
2.20887e-99
4.96187e-100
1.11173e-100
2.48447e-101
5.53805e-102
1.23132e-102
2.73077e-103
6.04089e-104
1.33298e-104
2.93399e-105
6.44187e-106
1.41087e-106
3.0824e-107
6.71775e-108
1.46048e-108
3.16743e-109
6.85275e-110
1.47902e-110
3.18448e-111
6.84011e-112
1.46572e-112
3.13336e-113
6.68254e-114
1.42184e-114
3.01817e-115
6.39179e-116
1.35049e-116
2.84681e-117
5.9872e-118
1.2563e-118
2.6301e-119
5.49367e-120
1.14491e-120
2.38067e-121
4.93915e-122
1.02243e-122
2.11179e-123
4.35216e-124
8.94951e-125
1.83628e-125
3.75949e-126
7.68018e-127
1.56556e-127
3.18443e-128
6.46335e-129
1.30904e-129
2.64557e-130
5.33534e-131
1.0737e-131
2.15621e-132
4.32102e-133
8.64116e-134
1.72446e-134
3.43425e-135
6.82515e-136
1.35363e-136
2.67914e-137
5.2918e-138
1.04311e-138
2.05198e-139
4.02848e-140
7.8929e-141
1.54334e-141
3.01175e-142
5.86563e-143
1.14012e-143
2.21172e-144
4.28209e-145
8.27432e-146
1.59574e-146
3.07149e-147
5.9006e-148
1.13137e-148
2.16512e-149
4.13551e-150
7.88402e-151
1.50018e-151
2.84916e-152
5.40098e-153
1.02191e-153
1.92994e-154
3.63801e-155
6.84509e-156
1.28556e-156
2.40993e-157
4.50943e-158
8.42256e-159
1.57028e-159
2.92227e-160
5.42849e-161
1.0066e-161
1.86317e-162
3.44251e-163
6.34925e-164
1.16896e-164
2.14837e-165
3.94142e-166
7.2183e-167
1.31964e-167
2.40837e-168
4.38767e-169
7.97982e-170
1.44879e-170
2.62584e-171
4.75106e-172
8.58166e-173
1.54744e-173
2.78561e-174
5.00604e-175
8.98128e-176
1.60862e-176
2.87637e-177
5.13467e-178
9.15082e-179
1.62813e-179
2.89204e-180
5.1287e-181
9.08028e-182
1.60503e-182
2.83245e-183
4.99043e-184
8.77836e-185
1.54167e-185
2.70316e-186
4.73217e-187
8.271e-188
1.44333e-188
2.51472e-189
4.37449e-190
7.59774e-191
1.31753e-191
2.28119e-192
3.94356e-193
6.80677e-194
1.17307e-194
2.01855e-195
3.46807e-196
5.9494e-197
1.01905e-197
1.74286e-198
2.97625e-199
5.07484e-200
8.64017e-201
1.46883e-201
2.49329e-202
4.22599e-203
7.15218e-204
1.20867e-204
2.03956e-205
3.43658e-206
5.78203e-207
9.71408e-208
1.62964e-208
2.72992e-209
4.56648e-210
7.62759e-211
1.27224e-211
2.11899e-212
3.52428e-213
5.8532e-214
9.70735e-215
1.60766e-215
2.65874e-216
4.39084e-217
7.2412e-218
1.19253e-218
1.9612e-219
3.22086e-220
5.28229e-221
8.65116e-222
1.41491e-222
2.31095e-223
3.76927e-224
6.13951e-225
9.98666e-226
1.62226e-226
)
;

boundaryField
{
    sides
    {
        type            zeroGradient;
    }
    empty
    {
        type            empty;
    }
}


// ************************************************************************* //
