/*--------------------------------*- C++ -*----------------------------------*\
| =========                 |                                                 |
| \\      /  F ield         | OpenFOAM: The Open Source CFD Toolbox           |
|  \\    /   O peration     | Version:  2312                                  |
|   \\  /    A nd           | Website:  www.openfoam.com                      |
|    \\/     M anipulation  |                                                 |
\*---------------------------------------------------------------------------*/
FoamFile
{
    version     2.0;
    format      ascii;
    arch        "LSB;label=32;scalar=64";
    class       volScalarField;
    location    "3.8";
    object      T;
}
// * * * * * * * * * * * * * * * * * * * * * * * * * * * * * * * * * * * * * //

dimensions      [0 0 0 1 0 0 0];

internalField   nonuniform List<scalar> 
1000
(
1.05323e-07
-2.94659e-08
1.08841e-07
-1.23792e-07
1.98232e-07
-2.77084e-07
4.0427e-07
-5.77555e-07
8.26785e-07
-1.17613e-06
1.66743e-06
-2.35335e-06
3.30761e-06
-4.62859e-06
6.44892e-06
-8.94532e-06
1.23524e-05
-1.69797e-05
2.32327e-05
-3.16397e-05
4.28844e-05
-5.78453e-05
7.76438e-05
-0.000103701
0.000137802
-0.000182177
0.000239583
-0.000313402
0.000407745
-0.00052756
0.000678741
-0.000868232
0.00110411
-0.00139567
0.00175341
-0.00218904
0.00271535
-0.00334603
0.00409531
-0.00497756
0.00600661
-0.00719499
0.00855292
-0.0100872
0.0117996
-0.0136861
0.0157343
-0.0179228
0.0202193
-0.0225796
0.0249467
-0.0272508
0.0294098
-0.0313308
0.0329129
-0.0340507
0.0346396
-0.0345821
0.0337945
-0.0322151
0.0298118
-0.0265898
0.0225978
-0.0179324
0.0127395
-0.0072126
0.00158648
0.00387289
-0.00888324
0.0131645
-0.0164598
0.0185587
-0.0193182
0.0186824
-0.0166955
0.0135083
-0.00937462
0.00463753
0.000295104
-0.00498419
0.00899999
-0.0119658
0.0136001
-0.0137521
0.0124253
-0.00978528
0.00614854
-0.00195191
-0.00229523
0.00607156
-0.00891007
0.0104613
-0.0105443
0.00917717
-0.00658029
0.00315058
0.000592373
-0.00408155
0.00678868
-0.00830826
0.00842522
-0.0071539
0.00473979
-0.00162152
-0.00164245
0.00447119
-0.00636594
0.00700296
-0.0062962
0.00441612
-0.00175903
-0.00112939
0.0036626
-0.00533278
0.00581681
-0.00504539
0.00321889
-0.000764583
-0.00175748
0.00378022
-0.00485914
0.0047756
-0.00358851
0.00162041
0.000620435
-0.00256465
0.00372295
-0.00380861
0.00280913
-0.000987288
-0.0011906
0.00318146
-0.00451427
0.00492062
-0.00441028
0.00326948
-0.00198101
0.00108761
-0.00103742
0.00205675
-0.00408834
0.00681453
-0.00975934
0.0124386
-0.0145116
0.0158862
-0.0167421
0.0174648
-0.0185089
0.0202357
-0.0227787
0.0259817
-0.0294328
0.0325817
-0.0349035
0.0360496
-0.0359375
0.0347442
-0.0328115
0.0304959
-0.0280228
0.0254005
-0.0224296
0.0188048
-0.0142732
0.00878555
-0.00258286
-0.00382075
0.00975524
-0.0145708
0.0178081
-0.0193008
0.0191745
-0.0177508
0.0154006
-0.0124133
0.00893792
-0.00501858
0.000703232
0.00383175
-0.00820828
0.0118713
-0.0142153
0.0147684
-0.0133626
0.0102165
-0.00589582
0.0011624
0.00322734
-0.00669851
0.00894553
-0.00991348
0.00970376
-0.00846699
0.0063445
-0.00348588
0.000122162
0.00336354
-0.00643138
0.00847881
-0.00901347
0.00783738
-0.00515784
0.00156577
0.00212234
-0.00510134
0.0068016
-0.00701663
0.00589788
-0.00384089
0.00133088
0.00118
-0.00332489
0.00481547
-0.00542379
0.00500005
-0.00353881
0.00125803
0.00137315
-0.00370946
0.00510868
-0.00515442
0.00382509
-0.00152486
-0.00104832
0.00314625
-0.00422225
0.00408787
-0.00292226
0.00115428
0.00070942
-0.00222983
0.00311041
-0.00320931
0.00252886
-0.00121508
-0.000435468
0.00199763
-0.00300526
0.00310261
-0.00220381
0.000574237
0.00123117
-0.00256899
0.0029662
-0.00231527
0.000910217
0.000692025
-0.00191223
0.00237335
-0.00201141
0.00104496
0.00015215
-0.00119644
0.00179912
-0.00181477
0.00125476
-0.000286021
-0.000790034
0.00160277
-0.00183273
0.00135401
-0.000325222
-0.000841563
0.00164729
-0.00173848
0.00108461
1.96855e-06
-0.00102079
0.00152999
-0.00135084
0.000626306
0.00028145
-0.000980758
0.00121968
-0.000960759
0.000354254
0.000346804
-0.000879929
0.0010503
-0.000789395
0.000190001
0.000505134
-0.00098442
0.0010073
-0.000540082
-0.000198924
0.000834486
-0.0010335
0.000695269
-1.28772e-05
-0.000638175
0.000917184
-0.000706346
0.000157963
0.000415363
-0.000725512
0.000652716
-0.000277299
-0.000192494
0.000534419
-0.000605703
0.000388326
1.20215e-05
-0.000405968
0.00059594
-0.000471839
8.41879e-05
0.000360406
-0.000603613
0.000492176
-8.6168e-05
-0.000366133
0.000583611
-0.000436823
3.19881e-05
0.000365616
-0.000512181
0.000340209
1.56925e-05
-0.000325621
0.00041599
-0.000262298
-2.1785e-05
0.000268642
-0.000350161
0.000233713
1.11717e-05
-0.000247979
0.000339116
-0.000222582
-3.95248e-05
0.000283437
-0.00034299
0.000168722
0.000124013
-0.000328546
0.000297766
-5.7141e-05
-0.00021347
0.000318004
-0.000191884
-5.77616e-05
0.000244601
-0.000245889
8.18403e-05
0.000118241
-0.000219529
0.000169464
-1.60088e-05
-0.000136745
0.00019445
-0.000123596
-3.04321e-05
0.000166171
-0.000186658
6.95388e-05
0.000104743
-0.000203021
0.000143028
3.21306e-05
-0.000181236
0.000181249
-3.39647e-05
-0.000134729
0.000184958
-8.28409e-05
-7.70559e-05
0.000161126
-0.000110815
-1.90755e-05
0.000119566
-0.000119591
3.20323e-05
7.02992e-05
-0.000114001
7.24621e-05
2.18903e-05
-9.98412e-05
0.000100849
-1.93963e-05
-8.2219e-05
0.000117266
-4.98773e-05
-6.45705e-05
0.000122516
-6.83962e-05
-4.83657e-05
0.000117846
-7.60493e-05
-3.34201e-05
0.000105015
-7.56968e-05
-1.86589e-05
8.65054e-05
-7.12206e-05
-3.09406e-06
6.55958e-05
-6.65395e-05
1.32991e-05
4.60469e-05
-6.45269e-05
2.91475e-05
3.13375e-05
-6.61319e-05
4.19404e-05
2.36227e-05
-7.00843e-05
4.90004e-05
2.28496e-05
-7.34686e-05
4.88386e-05
2.65644e-05
-7.31295e-05
4.22553e-05
3.07739e-05
-6.74123e-05
3.24761e-05
3.17381e-05
-5.73767e-05
2.39493e-05
2.79536e-05
-4.66386e-05
2.01453e-05
2.11981e-05
-3.95882e-05
2.14748e-05
1.57343e-05
-3.87284e-05
2.47342e-05
1.57413e-05
-4.27342e-05
2.4854e-05
2.23322e-05
-4.68003e-05
1.8262e-05
3.22406e-05
-4.55722e-05
5.71586e-06
3.95632e-05
-3.69869e-05
-7.72972e-06
3.98454e-05
-2.41211e-05
-1.62049e-05
3.36019e-05
-1.30748e-05
-1.76731e-05
2.60936e-05
-7.96784e-06
-1.58035e-05
2.28248e-05
-7.11815e-06
-1.67631e-05
2.42294e-05
-4.34029e-06
-2.30969e-05
2.46992e-05
4.94776e-06
-3.04161e-05
1.78265e-05
1.83008e-05
-3.09908e-05
3.4299e-06
2.75663e-05
-2.1637e-05
-1.11211e-05
2.67469e-05
-7.74234e-06
-1.78335e-05
1.84591e-05
1.92392e-06
-1.6441e-05
1.1065e-05
4.73955e-06
-1.41703e-05
8.7209e-06
6.69052e-06
-1.60595e-05
6.34371e-06
1.35349e-05
-1.75669e-05
-2.86931e-06
2.13e-05
-1.03581e-05
-1.60931e-05
1.99252e-05
4.83306e-06
-2.19628e-05
7.18407e-06
1.63805e-05
-1.4955e-05
-6.37144e-06
1.5895e-05
-3.42559e-06
-1.05729e-05
9.06418e-06
2.00958e-06
-8.78055e-06
5.89518e-06
3.35624e-06
-1.00098e-05
4.56966e-06
9.03631e-06
-1.17682e-05
-3.70648e-06
1.56802e-05
-3.78981e-06
-1.52134e-05
1.07853e-05
1.08894e-05
-1.51016e-05
-4.42368e-06
1.56788e-05
-2.00581e-06
-1.27321e-05
6.50106e-06
7.4845e-06
-7.96362e-06
-1.6475e-06
6.28147e-06
-3.14228e-06
-2.1998e-06
5.75847e-06
-3.0192e-06
-5.79847e-06
8.00776e-06
3.56628e-06
-1.16497e-05
1.1979e-07
1.33036e-05
-4.20644e-06
-1.28666e-05
7.68379e-06
1.06997e-05
-9.79737e-06
-7.4638e-06
1.0161e-05
3.92521e-06
-8.76918e-06
-7.78903e-07
5.93078e-06
-1.47609e-06
-2.15717e-06
2.59667e-06
-1.96162e-06
-2.59439e-06
5.86544e-06
1.68753e-06
-9.10103e-06
-2.26065e-07
1.1362e-05
-1.39132e-06
-1.24948e-05
2.79289e-06
1.24803e-05
-3.69239e-06
-1.14017e-05
3.92565e-06
9.40975e-06
-3.46491e-06
-6.69343e-06
2.41279e-06
3.46182e-06
-9.79433e-07
6.30088e-08
-5.53762e-07
-3.64375e-06
1.88026e-06
7.02176e-06
-2.72064e-06
-9.9144e-06
2.8765e-06
1.20231e-05
-2.27959e-06
-1.30589e-05
1.0279e-06
1.27869e-05
6.01922e-07
-1.1089e-05
-2.17654e-06
8.03137e-06
3.1706e-06
-3.92178e-06
-3.07517e-06
-6.70685e-07
1.5394e-06
4.95725e-06
1.48144e-06
-8.05136e-06
-5.61352e-06
9.17022e-06
1.00401e-05
-7.8861e-06
-1.36128e-05
4.36252e-06
1.5119e-05
5.17896e-07
-1.36767e-05
-5.23247e-06
9.1597e-06
7.96731e-06
-2.49267e-06
-7.21346e-06
-4.36763e-06
2.46326e-06
8.89801e-06
5.26301e-06
-8.90596e-06
-1.33853e-05
3.61693e-06
1.84629e-05
5.51296e-06
-1.75902e-05
-1.48104e-05
1.00461e-05
1.95864e-05
1.61734e-06
-1.63656e-05
-1.1938e-05
5.26521e-06
1.47878e-05
8.90058e-06
-6.90386e-06
-1.80873e-05
-9.07077e-06
1.52183e-05
2.43813e-05
6.35495e-07
-2.82302e-05
-2.14969e-05
1.49907e-05
3.33945e-05
9.69809e-06
-2.52159e-05
-2.95072e-05
-1.19483e-06
2.72944e-05
2.79925e-05
1.93274e-07
-3.14836e-05
-3.42569e-05
2.10495e-06
4.39051e-05
4.09168e-05
-1.20653e-05
-5.80818e-05
-4.12743e-05
2.36319e-05
6.61321e-05
4.04633e-05
-2.70432e-05
-7.05777e-05
-4.91316e-05
2.09882e-05
8.0275e-05
7.09209e-05
-1.10946e-05
-9.77483e-05
-0.000100693
-1.62642e-06
0.00011421
0.000133214
2.70035e-05
-0.000115454
-0.000168579
-7.98618e-05
8.824e-05
0.000205611
0.00016831
-1.91811e-05
-0.000227563
-0.000283311
-0.000108626
0.000191281
0.000388075
0.000305954
-3.11088e-05
-0.000402841
-0.000540261
-0.000307388
0.000196773
0.000672155
0.00078007
0.000362358
-0.000412189
-0.00109572
-0.00121106
-0.000558974
0.000616892
0.00171568
0.00206898
0.00128909
-0.000480438
-0.00253071
-0.00382298
-0.00343898
-0.00106604
0.00271947
0.00652875
0.00858703
0.00735818
0.00217095
-0.00632487
-0.0160026
-0.0234769
-0.0246696
-0.015575
0.00699341
0.0448545
0.0981889
0.165543
0.244075
0.33
0.419141
0.507472
0.591523
0.668613
0.736949
0.795619
0.844511
0.884142
0.915444
0.939546
0.957633
0.970871
0.980343
0.986996
0.991581
0.994665
0.99667
0.997936
0.998736
0.999258
0.999598
0.999791
0.999872
0.999898
0.999927
0.99998
1.00003
1.00003
0.99999
0.999954
0.999964
1.00001
1.00005
1.00004
0.999981
0.999937
0.999956
1.00002
1.00007
1.00005
0.999977
0.999914
0.999929
1.00002
1.0001
1.0001
0.999999
0.999891
0.999871
0.999969
1.00011
1.00017
1.00009
0.999912
0.999788
0.99983
1.00003
1.00023
1.00028
1.0001
0.999811
0.999619
0.999694
1.00002
1.0004
1.00055
1.00031
0.999799
0.99932
0.999221
0.999646
1.00042
1.00109
1.0012
1.00056
0.999392
0.998284
0.997922
0.998706
1.00049
1.00254
1.00382
1.00343
1.00106
0.99729
0.993479
0.991408
0.992631
0.997827
1.00634
1.01601
1.02347
1.02466
1.01557
0.993019
0.955155
0.901804
0.834443
0.755923
0.670014
0.580871
0.492522
0.40846
0.331381
0.263065
0.204397
0.155487
0.115839
0.084544
0.0604654
0.0423882
0.0291345
0.0196379
0.0129837
0.00842164
0.00535993
0.00334768
0.00205208
0.00123466
0.000729155
0.000422688
0.000240514
0.000134325
7.36259e-05
3.96008e-05
2.08977e-05
1.08172e-05
5.49064e-06
2.7319e-06
1.33183e-06
6.35821e-07
2.97053e-07
1.35702e-07
6.05559e-08
2.63626e-08
1.11785e-08
4.60727e-09
1.84064e-09
7.10105e-10
2.63132e-10
9.28965e-11
3.08361e-11
9.39445e-12
2.49183e-12
4.88798e-13
6.01633e-15
-6.2613e-14
-4.50166e-14
-2.31329e-14
-1.00975e-14
-3.91965e-15
-1.36572e-15
-4.20782e-16
-1.08434e-16
-1.89205e-17
1.20394e-18
3.21659e-18
1.98396e-18
9.05488e-19
3.46592e-19
1.13854e-19
3.1158e-20
6.15913e-21
1.58684e-22
-6.4457e-22
-4.28642e-22
-1.9379e-22
-7.08601e-23
-2.14094e-23
-4.99389e-24
-5.90175e-25
2.16539e-25
2.0084e-25
9.75943e-26
3.6282e-26
1.08252e-26
2.40775e-27
2.24247e-28
-1.35401e-28
-1.05088e-28
-4.69859e-29
-1.60203e-29
-4.22058e-30
-7.1185e-31
4.4494e-32
1.02199e-31
5.38364e-32
1.98496e-32
5.57746e-33
1.06361e-33
1.42599e-35
-1.02978e-34
-5.89846e-35
-2.21576e-35
-6.20334e-36
-1.15296e-36
-1.33909e-39
1.16099e-37
6.33421e-38
2.26891e-38
5.92293e-39
9.28908e-40
-8.87376e-41
-1.38853e-40
-6.50687e-41
-2.08773e-41
-4.68052e-42
-4.37517e-43
2.22001e-43
1.57603e-43
6.05916e-44
1.63427e-44
2.6821e-45
-1.63865e-46
-3.3537e-46
-1.55453e-46
-4.76622e-47
-9.69e-48
-4.83335e-49
6.47467e-49
3.6784e-49
1.24227e-49
2.82822e-50
2.76292e-51
-1.18302e-51
-8.28339e-52
-2.99664e-52
-7.24648e-53
-8.67646e-54
2.18867e-54
1.81777e-54
6.82458e-55
1.68593e-55
2.12706e-56
-4.45301e-57
-3.9435e-57
-1.48189e-57
-3.61081e-58
-4.33764e-59
1.03238e-59
8.47965e-60
3.07298e-60
7.12824e-61
7.24964e-62
-2.59546e-62
-1.79211e-62
-6.05263e-63
-1.28439e-63
-8.73197e-65
6.53977e-65
3.66442e-65
1.11914e-65
2.06027e-66
2.02762e-68
-1.56324e-67
-7.11287e-68
-1.907e-68
-2.7782e-69
2.85278e-70
3.44414e-70
1.284e-70
2.90819e-71
2.63661e-72
-1.11798e-72
-6.88144e-73
-2.10501e-73
-3.75598e-74
4.50533e-77
2.89194e-75
1.22965e-75
3.03076e-76
3.53697e-77
-7.92279e-78
-6.00005e-78
-1.92774e-78
-3.5951e-79
-6.64653e-81
2.39232e-80
1.04334e-80
2.55876e-81
2.90175e-82
-6.79859e-83
-4.91213e-83
-1.52162e-83
-2.60131e-84
4.18428e-86
)
;

boundaryField
{
    sides
    {
        type            zeroGradient;
    }
    empty
    {
        type            empty;
    }
}


// ************************************************************************* //
