/*--------------------------------*- C++ -*----------------------------------*\
| =========                 |                                                 |
| \\      /  F ield         | OpenFOAM: The Open Source CFD Toolbox           |
|  \\    /   O peration     | Version:  2312                                  |
|   \\  /    A nd           | Website:  www.openfoam.com                      |
|    \\/     M anipulation  |                                                 |
\*---------------------------------------------------------------------------*/
FoamFile
{
    version     2.0;
    format      ascii;
    arch        "LSB;label=32;scalar=64";
    class       volScalarField;
    location    "1.7";
    object      T;
}
// * * * * * * * * * * * * * * * * * * * * * * * * * * * * * * * * * * * * * //

dimensions      [0 0 0 1 0 0 0];

internalField   nonuniform List<scalar> 
1000
(
1.67058e-14
1.68694e-14
1.73217e-14
1.80701e-14
1.91265e-14
2.05079e-14
2.22362e-14
2.4339e-14
2.68498e-14
2.98083e-14
3.32614e-14
3.72635e-14
4.18776e-14
4.71759e-14
5.32411e-14
6.01676e-14
6.80628e-14
7.70484e-14
8.72625e-14
9.88616e-14
1.12022e-13
1.26945e-13
1.43854e-13
1.63004e-13
1.84683e-13
2.09213e-13
2.36958e-13
2.68329e-13
3.03786e-13
3.43849e-13
3.89102e-13
4.402e-13
4.97882e-13
5.62976e-13
6.36413e-13
7.19239e-13
8.12626e-13
9.17891e-13
1.03651e-12
1.17014e-12
1.32064e-12
1.4901e-12
1.68083e-12
1.89546e-12
2.13691e-12
2.40845e-12
2.71376e-12
3.05693e-12
3.44255e-12
3.87575e-12
4.36226e-12
4.90849e-12
5.52159e-12
6.20958e-12
6.98136e-12
7.8469e-12
8.81733e-12
9.90504e-12
1.11239e-11
1.24892e-11
1.40183e-11
1.57303e-11
1.76465e-11
1.97906e-11
2.21892e-11
2.48716e-11
2.78705e-11
3.12225e-11
3.49679e-11
3.91519e-11
4.38244e-11
4.9041e-11
5.48634e-11
6.13602e-11
6.86073e-11
7.66892e-11
8.56995e-11
9.57419e-11
1.06932e-10
1.19396e-10
1.33277e-10
1.4873e-10
1.6593e-10
1.85067e-10
2.06354e-10
2.30026e-10
2.56343e-10
2.85592e-10
3.1809e-10
3.54189e-10
3.94275e-10
4.38777e-10
4.88166e-10
5.42965e-10
6.03748e-10
6.7115e-10
7.4587e-10
8.2868e-10
9.20429e-10
1.02205e-09
1.13458e-09
1.25916e-09
1.39702e-09
1.54955e-09
1.71826e-09
1.9048e-09
2.11102e-09
2.33891e-09
2.59069e-09
2.86877e-09
3.17583e-09
3.51478e-09
3.88883e-09
4.30149e-09
4.75662e-09
5.25846e-09
5.81163e-09
6.42121e-09
7.09276e-09
7.83238e-09
8.64673e-09
9.5431e-09
1.05295e-08
1.16146e-08
1.2808e-08
1.41201e-08
1.55623e-08
1.7147e-08
1.88879e-08
2.07998e-08
2.28988e-08
2.52027e-08
2.77307e-08
3.05038e-08
3.3545e-08
3.6879e-08
4.05333e-08
4.45373e-08
4.89232e-08
5.37261e-08
5.89843e-08
6.4739e-08
7.10356e-08
7.79229e-08
8.54543e-08
9.36876e-08
1.02686e-07
1.12517e-07
1.23255e-07
1.34981e-07
1.47781e-07
1.6175e-07
1.7699e-07
1.93613e-07
2.11738e-07
2.31496e-07
2.53027e-07
2.76484e-07
3.02032e-07
3.29849e-07
3.60128e-07
3.93078e-07
4.28924e-07
4.67908e-07
5.10295e-07
5.56367e-07
6.0643e-07
6.60815e-07
7.19878e-07
7.84002e-07
8.53602e-07
9.29122e-07
1.01104e-06
1.09988e-06
1.1962e-06
1.30059e-06
1.4137e-06
1.53621e-06
1.66889e-06
1.81252e-06
1.96796e-06
2.13614e-06
2.31806e-06
2.51477e-06
2.72742e-06
2.95723e-06
3.20552e-06
3.47369e-06
3.76325e-06
4.07582e-06
4.41313e-06
4.77704e-06
5.16952e-06
5.5927e-06
6.04885e-06
6.54039e-06
7.06992e-06
7.64021e-06
8.25421e-06
8.9151e-06
9.62624e-06
1.03912e-05
1.12139e-05
1.20984e-05
1.3049e-05
1.40704e-05
1.51676e-05
1.63458e-05
1.76107e-05
1.89683e-05
2.04248e-05
2.19871e-05
2.36624e-05
2.54582e-05
2.73829e-05
2.94449e-05
3.16534e-05
3.40182e-05
3.65496e-05
3.92586e-05
4.21566e-05
4.52562e-05
4.85702e-05
5.21126e-05
5.58979e-05
5.99417e-05
6.42603e-05
6.88711e-05
7.37923e-05
7.90435e-05
8.4645e-05
9.06186e-05
9.69871e-05
0.000103775
0.000111007
0.00011871
0.000126913
0.000135645
0.000144939
0.000154827
0.000165344
0.000176527
0.000188414
0.000201047
0.000214468
0.000228722
0.000243857
0.000259922
0.000276969
0.000295054
0.000314233
0.000334568
0.000356121
0.000378958
0.00040315
0.000428769
0.000455892
0.000484597
0.00051497
0.000547096
0.000581068
0.000616981
0.000654935
0.000695035
0.000737388
0.000782109
0.000829317
0.000879134
0.00093169
0.000987119
0.00104556
0.00110716
0.00117208
0.00124046
0.00131247
0.00138829
0.00146809
0.00155205
0.00164037
0.00173325
0.00183089
0.00193351
0.00204132
0.00215457
0.00227348
0.00239831
0.0025293
0.00266673
0.00281087
0.002962
0.00312042
0.00328642
0.00346032
0.00364244
0.00383311
0.00403268
0.0042415
0.00445993
0.00468835
0.00492715
0.00517672
0.00543748
0.00570983
0.00599423
0.0062911
0.00660091
0.00692412
0.00726122
0.0076127
0.00797906
0.00836082
0.0087585
0.00917266
0.00960384
0.0100526
0.0105196
0.0110053
0.0115104
0.0120354
0.0125811
0.013148
0.0137369
0.0143483
0.0149829
0.0156415
0.0163247
0.0170333
0.0177679
0.0185293
0.0193183
0.0201355
0.0209818
0.0218579
0.0227647
0.0237028
0.0246731
0.0256763
0.0267134
0.0277851
0.0288922
0.0300356
0.0312161
0.0324345
0.0336917
0.0349885
0.0363257
0.0377042
0.0391249
0.0405886
0.0420961
0.0436483
0.045246
0.04689
0.0485812
0.0503204
0.0521084
0.0539461
0.0558341
0.0577733
0.0597646
0.0618085
0.063906
0.0660577
0.0682643
0.0705266
0.0728453
0.0752209
0.0776542
0.0801458
0.0826962
0.085306
0.0879759
0.0907062
0.0934976
0.0963504
0.0992651
0.102242
0.105282
0.108384
0.11155
0.11478
0.118073
0.12143
0.124852
0.128337
0.131887
0.135501
0.139179
0.142921
0.146727
0.150597
0.154531
0.158527
0.162587
0.166709
0.170894
0.17514
0.179447
0.183814
0.188242
0.192728
0.197273
0.201875
0.206533
0.211248
0.216016
0.220839
0.225713
0.230639
0.235615
0.240639
0.245711
0.250828
0.25599
0.261194
0.266439
0.271724
0.277047
0.282405
0.287797
0.293222
0.298677
0.30416
0.309669
0.315202
0.320756
0.326331
0.331922
0.337529
0.343148
0.348777
0.354415
0.360057
0.365702
0.371347
0.37699
0.382627
0.388257
0.393876
0.399481
0.405071
0.410642
0.416191
0.421716
0.427213
0.43268
0.438113
0.443511
0.44887
0.454187
0.459459
0.464684
0.469858
0.474978
0.480042
0.485047
0.489989
0.494867
0.499677
0.504416
0.509081
0.513671
0.518181
0.52261
0.526954
0.531211
0.535379
0.539454
0.543435
0.547318
0.551102
0.554784
0.558362
0.561833
0.565195
0.568446
0.571585
0.574608
0.577515
0.580302
0.58297
0.585514
0.587935
0.59023
0.592398
0.594438
0.596348
0.598127
0.599773
0.601286
0.602665
0.603909
0.605016
0.605987
0.60682
0.607515
0.608072
0.60849
0.608768
0.608908
0.608908
0.608768
0.60849
0.608072
0.607515
0.60682
0.605987
0.605016
0.603909
0.602665
0.601286
0.599773
0.598127
0.596348
0.594438
0.592398
0.59023
0.587935
0.585514
0.58297
0.580302
0.577515
0.574608
0.571585
0.568446
0.565195
0.561833
0.558362
0.554784
0.551102
0.547318
0.543435
0.539454
0.535379
0.531211
0.526954
0.52261
0.518181
0.513671
0.509081
0.504416
0.499677
0.494867
0.489989
0.485047
0.480042
0.474978
0.469858
0.464684
0.459459
0.454187
0.44887
0.443511
0.438113
0.43268
0.427213
0.421716
0.416191
0.410642
0.405071
0.399481
0.393876
0.388257
0.382627
0.37699
0.371347
0.365702
0.360057
0.354415
0.348777
0.343148
0.337529
0.331922
0.326331
0.320756
0.315202
0.309669
0.30416
0.298677
0.293222
0.287797
0.282405
0.277047
0.271724
0.266439
0.261194
0.25599
0.250828
0.245711
0.240639
0.235615
0.230639
0.225713
0.220839
0.216016
0.211248
0.206533
0.201875
0.197273
0.192728
0.188242
0.183814
0.179447
0.17514
0.170894
0.166709
0.162587
0.158527
0.154531
0.150597
0.146727
0.142921
0.139179
0.135501
0.131887
0.128337
0.124852
0.12143
0.118073
0.11478
0.11155
0.108384
0.105282
0.102242
0.0992651
0.0963504
0.0934976
0.0907062
0.0879759
0.085306
0.0826962
0.0801458
0.0776542
0.0752209
0.0728453
0.0705266
0.0682643
0.0660577
0.063906
0.0618085
0.0597646
0.0577733
0.0558341
0.0539461
0.0521084
0.0503204
0.0485812
0.04689
0.045246
0.0436483
0.0420961
0.0405886
0.0391249
0.0377042
0.0363257
0.0349885
0.0336917
0.0324345
0.0312161
0.0300356
0.0288922
0.0277851
0.0267134
0.0256763
0.0246731
0.0237028
0.0227647
0.0218579
0.0209818
0.0201355
0.0193183
0.0185293
0.0177679
0.0170333
0.0163247
0.0156415
0.0149829
0.0143483
0.0137369
0.013148
0.0125811
0.0120354
0.0115104
0.0110053
0.0105196
0.0100526
0.00960384
0.00917266
0.0087585
0.00836082
0.00797906
0.0076127
0.00726122
0.00692412
0.00660091
0.0062911
0.00599423
0.00570983
0.00543748
0.00517672
0.00492715
0.00468835
0.00445993
0.0042415
0.00403268
0.00383311
0.00364244
0.00346032
0.00328642
0.00312042
0.002962
0.00281087
0.00266673
0.0025293
0.00239831
0.00227348
0.00215457
0.00204132
0.00193351
0.00183089
0.00173325
0.00164037
0.00155205
0.00146809
0.00138829
0.00131247
0.00124046
0.00117208
0.00110716
0.00104556
0.000987119
0.00093169
0.000879134
0.000829317
0.000782109
0.000737388
0.000695035
0.000654935
0.000616981
0.000581068
0.000547096
0.00051497
0.000484597
0.000455892
0.000428769
0.00040315
0.000378958
0.000356121
0.000334568
0.000314233
0.000295054
0.000276969
0.000259922
0.000243857
0.000228722
0.000214468
0.000201047
0.000188414
0.000176527
0.000165344
0.000154827
0.000144939
0.000135645
0.000126913
0.00011871
0.000111007
0.000103775
9.69871e-05
9.06186e-05
8.4645e-05
7.90435e-05
7.37923e-05
6.88711e-05
6.42603e-05
5.99417e-05
5.58979e-05
5.21126e-05
4.85702e-05
4.52562e-05
4.21566e-05
3.92586e-05
3.65496e-05
3.40182e-05
3.16534e-05
2.94449e-05
2.73829e-05
2.54582e-05
2.36624e-05
2.19871e-05
2.04248e-05
1.89683e-05
1.76107e-05
1.63458e-05
1.51676e-05
1.40704e-05
1.3049e-05
1.20984e-05
1.12139e-05
1.03912e-05
9.62624e-06
8.9151e-06
8.25421e-06
7.64021e-06
7.06992e-06
6.54039e-06
6.04885e-06
5.5927e-06
5.16952e-06
4.77704e-06
4.41313e-06
4.07582e-06
3.76325e-06
3.47369e-06
3.20552e-06
2.95723e-06
2.72742e-06
2.51477e-06
2.31806e-06
2.13614e-06
1.96796e-06
1.81252e-06
1.66889e-06
1.53621e-06
1.4137e-06
1.30059e-06
1.1962e-06
1.09988e-06
1.01104e-06
9.29122e-07
8.53602e-07
7.84002e-07
7.19878e-07
6.60815e-07
6.0643e-07
5.56367e-07
5.10295e-07
4.67908e-07
4.28924e-07
3.93078e-07
3.60128e-07
3.29849e-07
3.02032e-07
2.76484e-07
2.53027e-07
2.31496e-07
2.11738e-07
1.93613e-07
1.7699e-07
1.6175e-07
1.47781e-07
1.34981e-07
1.23255e-07
1.12517e-07
1.02686e-07
9.36876e-08
8.54543e-08
7.79229e-08
7.10356e-08
6.4739e-08
5.89843e-08
5.37261e-08
4.89232e-08
4.45373e-08
4.05333e-08
3.6879e-08
3.3545e-08
3.05038e-08
2.77307e-08
2.52027e-08
2.28988e-08
2.07998e-08
1.88879e-08
1.7147e-08
1.55623e-08
1.41201e-08
1.2808e-08
1.16146e-08
1.05295e-08
9.5431e-09
8.64673e-09
7.83238e-09
7.09276e-09
6.42121e-09
5.81163e-09
5.25846e-09
4.75662e-09
4.30149e-09
3.88883e-09
3.51478e-09
3.17583e-09
2.86877e-09
2.59069e-09
2.33891e-09
2.11102e-09
1.9048e-09
1.71826e-09
1.54955e-09
1.39702e-09
1.25916e-09
1.13458e-09
1.02205e-09
9.20429e-10
8.2868e-10
7.4587e-10
6.7115e-10
6.03748e-10
5.42965e-10
4.88166e-10
4.38777e-10
3.94275e-10
3.54189e-10
3.1809e-10
2.85592e-10
2.56343e-10
2.30026e-10
2.06354e-10
1.85067e-10
1.6593e-10
1.4873e-10
1.33277e-10
1.19396e-10
1.06932e-10
9.57419e-11
8.56995e-11
7.66892e-11
6.86073e-11
6.13602e-11
5.48634e-11
4.9041e-11
4.38244e-11
3.91519e-11
3.49679e-11
3.12225e-11
2.78705e-11
2.48716e-11
2.21892e-11
1.97906e-11
1.76465e-11
1.57303e-11
1.40183e-11
1.24892e-11
1.11239e-11
9.90504e-12
8.81733e-12
7.8469e-12
6.98136e-12
6.20958e-12
5.52159e-12
4.90849e-12
4.36226e-12
3.87575e-12
3.44255e-12
3.05693e-12
2.71376e-12
2.40845e-12
2.13691e-12
1.89546e-12
1.68083e-12
1.4901e-12
1.32064e-12
1.17014e-12
1.03651e-12
9.17891e-13
8.12626e-13
7.19239e-13
6.36413e-13
5.62976e-13
4.97882e-13
4.402e-13
3.89102e-13
3.43849e-13
3.03786e-13
2.68329e-13
2.36958e-13
2.09213e-13
1.84683e-13
1.63004e-13
1.43854e-13
1.26945e-13
1.12022e-13
9.88616e-14
8.72625e-14
7.70484e-14
6.80628e-14
6.01676e-14
5.32411e-14
4.71759e-14
4.18776e-14
3.72635e-14
3.32614e-14
2.98083e-14
2.68498e-14
2.4339e-14
2.22362e-14
2.05079e-14
1.91265e-14
1.80701e-14
1.73217e-14
1.68694e-14
1.67058e-14
)
;

boundaryField
{
    sides
    {
        type            zeroGradient;
    }
    empty
    {
        type            empty;
    }
}


// ************************************************************************* //
