/*--------------------------------*- C++ -*----------------------------------*\
| =========                 |                                                 |
| \\      /  F ield         | OpenFOAM: The Open Source CFD Toolbox           |
|  \\    /   O peration     | Version:  2312                                  |
|   \\  /    A nd           | Website:  www.openfoam.com                      |
|    \\/     M anipulation  |                                                 |
\*---------------------------------------------------------------------------*/
FoamFile
{
    version     2.0;
    format      ascii;
    arch        "LSB;label=32;scalar=64";
    class       volScalarField;
    location    "4.4";
    object      T;
}
// * * * * * * * * * * * * * * * * * * * * * * * * * * * * * * * * * * * * * //

dimensions      [0 0 0 1 0 0 0];

internalField   nonuniform List<scalar> 
1000
(
0
0
0
0
0
0
0
0
0
0
0
0
0
0
0
0
0
0
0
0
0
0
0
0
0
0
0
0
0
0
0
0
0
0
0
0
0
0
0
0
0
0
0
0
0
0
0
0
0
0
0
0
0
0
0
0
0
0
0
0
0
0
0
0
0
0
0
0
0
0
0
0
0
0
0
0
0
0
0
0
0
0
0
0
0
0
0
0
0
0
0
0
0
0
0
0
0
0
0
0
0
0
0
0
0
0
0
0
0
0
0
0
0
0
0
0
0
0
0
0
0
0
0
0
0
0
0
0
0
0
0
0
0
0
0
0
0
0
0
0
0
0
0
0
0
0
0
0
0
0
0
0
0
0
0
0
0
0
0
0
0
0
0
0
0
0
0
0
0
0
0
0
0
-4.94066e-324
2.96439e-323
-4.94066e-324
2.96439e-323
-4.94066e-324
2.96439e-323
-4.94066e-324
2.96439e-323
-4.94066e-324
2.96439e-323
-4.94066e-324
2.96439e-323
-4.94066e-324
2.96439e-323
-4.94066e-324
2.96439e-323
-4.94066e-324
2.96439e-323
-4.94066e-324
2.96439e-323
-4.94066e-324
2.96439e-323
-4.94066e-324
2.96439e-323
-4.94066e-324
2.96439e-323
-4.94066e-324
2.96439e-323
-4.94066e-324
2.96439e-323
-4.94066e-324
2.96439e-323
-4.94066e-324
2.96439e-323
-4.94066e-324
2.96439e-323
-4.94066e-324
2.96439e-323
-4.94066e-324
2.96439e-323
-4.94066e-324
2.96439e-323
-4.94066e-324
2.96439e-323
-4.94066e-324
2.96439e-323
-4.94066e-324
2.96439e-323
-4.94066e-324
2.96439e-323
-4.94066e-324
2.96439e-323
-4.94066e-324
2.96439e-323
-4.94066e-324
2.96439e-323
-4.94066e-324
2.96439e-323
-4.94066e-324
2.96439e-323
-4.94066e-324
2.96439e-323
-4.94066e-324
2.96439e-323
-4.94066e-324
2.96439e-323
-4.94066e-324
2.96439e-323
-4.94066e-324
2.96439e-323
-4.94066e-324
2.96439e-323
-4.94066e-324
2.96439e-323
-4.94066e-324
2.96439e-323
-4.94066e-324
2.96439e-323
-4.94066e-324
2.96439e-323
-4.94066e-324
2.96439e-323
-4.94066e-324
2.96439e-323
-4.94066e-324
9.88131e-324
2.96439e-323
5.43472e-323
7.41098e-323
9.88131e-323
1.18576e-322
1.43279e-322
1.63042e-322
1.87745e-322
2.12448e-322
2.37152e-322
2.61855e-322
2.86558e-322
3.06321e-322
3.26083e-322
3.45846e-322
3.65609e-322
4.15015e-322
4.00193e-322
3.7549e-322
3.55727e-322
3.35965e-322
3.16202e-322
2.96439e-322
2.76677e-322
2.51973e-322
2.2727e-322
2.02567e-322
1.77864e-322
1.5316e-322
1.33398e-322
1.08694e-322
8.89318e-323
6.42285e-323
4.44659e-323
1.97626e-323
-4.94066e-324
-2.96439e-323
-4.94066e-323
-7.41098e-323
-9.38725e-323
-1.13635e-322
-1.38338e-322
-1.63042e-322
-1.87745e-322
-2.07508e-322
-2.2727e-322
-2.51973e-322
-2.71736e-322
-2.96439e-322
-3.16202e-322
-3.40905e-322
-3.65609e-322
-3.85371e-322
-4.05134e-322
-4.24896e-322
-4.496e-322
-4.84184e-322
-9.33784e-322
-5.51377e-321
-5.14619e-320
-5.29777e-319
-5.79269e-318
-6.34638e-317
-1.33552e-315
-9.20047e-314
-7.38432e-312
-4.85687e-310
-2.1359e-308
-3.79838e-308
5.30499e-307
2.27657e-305
7.10827e-304
1.92854e-302
4.64657e-301
1.0051e-299
1.96863e-298
3.51646e-297
5.76332e-296
8.71233e-295
1.22028e-293
1.58983e-292
1.93317e-291
2.19983e-290
2.34701e-289
2.35027e-288
2.21639e-287
2.00529e-286
1.8427e-285
1.88425e-284
2.26841e-283
3.12145e-282
4.62005e-281
7.22455e-280
1.22467e-278
2.31044e-277
4.72674e-276
9.92372e-275
2.10835e-273
1.40801e-272
4.35209e-273
-3.69775e-271
-7.27428e-270
-1.19062e-268
-1.79501e-267
-2.52641e-266
-3.33224e-265
-4.12912e-264
-4.81772e-263
-5.30681e-262
-5.55038e-261
-5.60582e-260
-5.69436e-259
-6.19566e-258
-7.58612e-257
-1.04186e-255
-1.54323e-254
-2.38748e-253
-3.86366e-252
-6.71619e-251
-1.26859e-249
-2.54563e-248
-5.22637e-247
-8.19608e-246
-1.2e-245
7.56474e-245
1.95857e-243
3.45568e-242
5.53725e-241
8.27938e-240
1.16044e-238
1.52798e-237
1.89394e-236
2.21446e-235
2.44756e-234
2.56267e-233
2.54789e-232
2.41368e-231
2.19358e-230
1.94334e-229
1.73621e-228
1.64337e-227
1.71174e-226
1.97622e-225
2.56323e-224
3.98356e-223
7.74022e-222
1.79322e-220
4.45954e-219
1.00648e-217
2.42266e-217
-8.55015e-217
-2.99693e-215
-6.25422e-214
-1.16799e-212
-2.01468e-211
-3.22823e-210
-4.82112e-209
-6.7313e-208
-8.81331e-207
-1.08534e-205
-1.26089e-204
-1.38631e-203
-1.44781e-202
-1.44271e-201
-1.38043e-200
-1.282e-199
-1.17739e-198
-1.09878e-197
-1.07142e-196
-1.111e-195
-1.22904e-194
-1.43597e-193
-1.73632e-192
-2.12708e-191
-2.60674e-190
-3.2128e-189
-4.04422e-188
-5.30883e-187
-3.26933e-186
-2.56069e-186
3.32951e-185
5.27649e-184
6.71504e-183
8.93424e-182
1.27329e-180
1.82937e-179
2.48704e-178
3.06064e-177
3.30341e-176
3.25775e-175
3.90223e-174
6.47652e-173
1.12351e-171
1.65621e-170
1.97652e-169
1.89352e-168
1.42387e-167
9.03967e-167
7.28943e-166
1.10009e-164
2.36494e-163
4.89861e-162
1.22899e-161
-3.43742e-161
-7.69572e-160
-8.52162e-160
8.26471e-159
2.63196e-158
-4.60076e-158
-1.35424e-156
-1.64406e-155
-7.0007e-155
-4.87882e-155
4.69003e-154
4.54271e-153
1.13095e-152
5.58166e-153
-6.34927e-152
-4.71659e-151
-2.32029e-150
-9.57272e-150
-3.66917e-149
-1.43995e-148
-6.22312e-148
-2.9749e-147
-1.54064e-146
-9.45034e-146
-8.0848e-145
-9.83806e-144
-1.35926e-142
-1.70401e-141
-1.76296e-140
-1.47176e-139
-9.86241e-139
-5.23101e-138
-2.27279e-137
-1.04637e-136
-7.66662e-136
-8.76298e-135
-1.18841e-133
-9.503e-133
-9.34095e-133
7.93424e-132
1.0261e-130
1.24959e-130
-6.70835e-130
-1.33404e-128
-8.04101e-128
-5.99891e-128
8.49795e-127
1.19517e-125
2.76562e-125
-2.06429e-125
-1.60597e-124
1.95086e-124
6.98625e-123
9.13726e-122
1.05857e-120
7.18818e-120
7.26721e-120
-4.15349e-119
-2.7656e-118
-1.54689e-118
3.44324e-117
4.7398e-116
4.21827e-115
6.7486e-115
-1.0358e-114
-2.50154e-113
-2.35864e-112
-4.10359e-112
4.51659e-112
1.25259e-110
1.10111e-109
1.70741e-109
-2.4674e-109
-5.72339e-108
-5.65844e-107
-1.55943e-106
-3.09619e-107
2.0194e-105
2.2293e-104
9.68404e-104
7.64064e-104
-5.92429e-103
-7.45299e-102
-6.21354e-101
-1.42561e-100
-7.71054e-102
1.90407e-99
1.90444e-98
7.3893e-98
5.59984e-98
-4.247e-97
-4.97519e-96
-4.0887e-95
-1.31475e-94
-8.56751e-95
8.27847e-94
8.97354e-93
6.94785e-92
2.11292e-91
1.34945e-91
-1.28072e-90
-1.34573e-89
-1.00704e-88
-3.18589e-88
-2.30779e-88
1.57673e-87
1.67715e-86
1.23354e-85
4.36552e-85
3.75739e-85
-1.53679e-84
-1.76147e-83
-1.28548e-82
-8.48539e-82
-5.403e-81
-3.37787e-80
-2.08544e-79
-1.27276e-78
-7.68328e-78
-4.59201e-77
-2.71443e-76
-1.55747e-75
-4.42684e-75
-3.61404e-75
1.34954e-74
1.40809e-73
9.20694e-73
5.39806e-72
3.03897e-71
1.67656e-70
9.12645e-70
4.91407e-69
2.6196e-68
1.38306e-67
7.23306e-67
3.7473e-66
1.92332e-65
9.78004e-65
4.9272e-64
2.45949e-63
1.21644e-62
5.96141e-62
2.89491e-61
1.39304e-60
6.64269e-60
3.139e-59
1.47e-58
6.82237e-58
3.13802e-57
1.43051e-56
6.46324e-56
2.89433e-55
1.28467e-54
5.65191e-54
2.46471e-53
1.06541e-52
4.56514e-52
1.93905e-51
8.16455e-51
3.40793e-50
1.41018e-49
5.78484e-49
2.35261e-48
9.48548e-48
3.79163e-47
1.50265e-46
5.9042e-46
2.30009e-45
8.88416e-45
3.40236e-44
1.29195e-43
4.86424e-43
1.81593e-42
6.722e-42
2.4673e-41
8.97999e-41
3.24088e-40
1.15981e-39
4.11583e-39
1.44836e-38
5.05411e-38
1.74892e-37
6.00145e-37
2.04223e-36
6.89163e-36
2.30626e-35
7.65363e-35
2.51885e-34
8.22082e-34
2.66077e-33
8.5405e-33
2.71858e-32
8.58197e-32
2.6867e-31
8.34138e-31
2.5683e-30
7.8423e-30
2.37482e-29
7.13193e-29
2.12409e-28
6.27378e-28
1.83769e-27
5.33833e-27
1.53789e-26
4.39369e-26
1.24485e-25
3.49774e-25
9.74624e-25
2.69318e-24
7.38018e-24
2.00558e-23
5.40485e-23
1.44441e-22
3.8279e-22
1.00597e-21
2.6216e-21
6.77477e-21
1.73607e-20
4.41139e-20
1.11152e-19
2.77707e-19
6.87981e-19
1.68998e-18
4.11615e-18
9.94035e-18
2.38015e-17
5.65057e-17
1.33001e-16
3.10375e-16
7.18087e-16
1.64708e-15
3.74536e-15
8.44306e-15
1.8868e-14
4.17981e-14
9.17876e-14
1.998e-13
4.31099e-13
9.2197e-13
1.95434e-12
4.10597e-12
8.54963e-12
1.76433e-11
3.60825e-11
7.31279e-11
1.46866e-10
2.92278e-10
5.76352e-10
1.1261e-09
2.17995e-09
4.18094e-09
7.94402e-09
1.49528e-08
2.78805e-08
5.14931e-08
9.41988e-08
1.70673e-07
3.06254e-07
5.44213e-07
9.57633e-07
1.66857e-06
2.87856e-06
4.91655e-06
8.31321e-06
1.39145e-05
2.30527e-05
3.78006e-05
6.13423e-05
9.85074e-05
0.000156526
0.000246076
0.000382719
0.000588806
0.000895989
0.00134842
0.00200673
0.0029529
0.00429586
0.00617792
0.00878154
0.0123361
0.0171242
0.0234859
0.0318207
0.0425849
0.0562842
0.073458
0.094657
0.120411
0.151191
0.187357
0.229112
0.276451
0.32911
0.386536
0.447869
0.511953
0.57737
0.64251
0.705663
0.765136
0.819382
0.867124
0.90746
0.939934
0.964556
0.981773
0.992422
0.997768
0.999623
0.999973
0.999999
1
1
1
1
1
1
1
1
1
1
1
1
1
1
1
1
1
1
1
1
1
1
1
1
1
1
1
1
1
1
1
1
1
1
1
1
1
1
1
1
1
1
1
1
1
1
0.999999
0.999999
0.999998
0.999997
0.999995
0.999992
0.999986
0.999977
0.999962
0.999939
0.999901
0.999843
0.999754
0.999617
0.999411
0.999103
0.99865
0.997992
0.997045
0.995701
0.993817
0.991212
0.987655
0.982864
0.976499
0.96816
0.957391
0.943686
0.926505
0.905298
0.879536
0.848747
0.812572
0.770807
0.72346
0.670793
0.613361
0.552024
0.487938
0.422521
0.357385
0.294239
0.234775
0.180539
0.132809
0.0924858
0.0600251
0.0354151
0.0182079
0.00756729
0.00222786
0.000375597
2.71142e-05
6.04571e-07
3.05933e-09
2.71454e-12
3.51455e-16
2.98439e-20
2.57942e-24
2.2548e-28
1.97998e-32
1.73812e-36
1.52145e-40
1.32697e-44
1.15356e-48
1.00038e-52
8.66317e-57
7.4982e-61
6.49054e-65
5.62088e-69
4.87059e-73
4.22271e-77
3.66248e-81
3.1773e-85
2.75664e-89
2.39162e-93
2.07476e-97
1.7997e-101
1.56095e-105
1.35379e-109
1.17407e-113
1.01819e-117
8.83009e-122
7.65784e-126
6.64131e-130
5.7598e-134
4.99534e-138
4.33236e-142
3.75737e-146
3.25868e-150
2.82617e-154
2.45105e-158
2.12571e-162
1.84355e-166
1.59883e-170
1.3866e-174
1.20254e-178
1.0429e-182
9.04461e-187
7.84394e-191
6.80266e-195
5.89959e-199
5.1164e-203
4.43717e-207
3.8481e-211
3.33724e-215
2.89418e-219
2.50995e-223
2.17672e-227
1.88773e-231
1.63711e-235
1.41975e-239
1.23126e-243
1.06779e-247
9.26018e-252
8.03071e-256
6.96447e-260
6.03979e-264
5.23788e-268
4.54243e-272
3.93932e-276
3.41628e-280
2.96269e-284
2.56932e-288
2.22817e-292
1.93232e-296
1.67575e-300
1.45325e-304
1.26029e-308
1.09295e-312
9.47824e-317
8.20643e-321
0
0
0
0
0
0
0
0
0
0
0
0
0
0
0
0
0
0
0
0
0
0
0
0
0
0
0
0
0
0
0
0
0
0
0
0
0
0
0
0
0
0
0
0
0
0
0
0
)
;

boundaryField
{
    sides
    {
        type            zeroGradient;
    }
    empty
    {
        type            empty;
    }
}


// ************************************************************************* //
