/*--------------------------------*- C++ -*----------------------------------*\
| =========                 |                                                 |
| \\      /  F ield         | OpenFOAM: The Open Source CFD Toolbox           |
|  \\    /   O peration     | Version:  2312                                  |
|   \\  /    A nd           | Website:  www.openfoam.com                      |
|    \\/     M anipulation  |                                                 |
\*---------------------------------------------------------------------------*/
FoamFile
{
    version     2.0;
    format      ascii;
    arch        "LSB;label=32;scalar=64";
    class       volScalarField;
    location    "3.3";
    object      T;
}
// * * * * * * * * * * * * * * * * * * * * * * * * * * * * * * * * * * * * * //

dimensions      [0 0 0 1 0 0 0];

internalField   nonuniform List<scalar> 
1000
(
7.91137e-20
-7.13643e-20
1.53552e-19
-2.64522e-19
4.74904e-19
-8.42152e-19
1.49226e-18
-2.63561e-18
4.64224e-18
-8.15314e-18
1.42783e-17
-2.49329e-17
4.34116e-17
-7.53647e-17
1.30452e-16
-2.25137e-16
3.8739e-16
-6.64577e-16
1.13666e-15
-1.93818e-15
3.2948e-15
-5.58372e-15
9.43346e-15
-1.58877e-14
2.66738e-14
-4.46408e-14
7.44719e-14
-1.23839e-13
2.05266e-13
-3.39124e-13
5.58435e-13
-9.16536e-13
1.49926e-12
-2.44425e-12
3.97139e-12
-6.43067e-12
1.03771e-11
-1.66873e-11
2.67411e-11
-4.27012e-11
6.79448e-11
-1.07724e-10
1.70177e-10
-2.67857e-10
4.20054e-10
-6.56287e-10
1.02154e-09
-1.58406e-09
2.44698e-09
-3.76542e-09
5.77174e-09
-8.81236e-09
1.34015e-08
-2.02989e-08
3.06218e-08
-4.60057e-08
6.88326e-08
-1.02556e-07
1.52156e-07
-2.24781e-07
3.30637e-07
-4.84219e-07
7.06006e-07
-1.02477e-06
1.48073e-06
-2.12975e-06
3.04901e-06
-4.34451e-06
6.16093e-06
-8.69454e-06
1.22099e-05
-1.70613e-05
2.372e-05
-3.28085e-05
4.51431e-05
-6.17867e-05
8.41121e-05
-0.000113879
0.000153323
-0.00020526
0.000273209
-0.000361516
0.000475502
-0.000621607
0.000807538
-0.0010424
0.0013368
-0.00170291
0.00215448
-0.00270669
0.00337599
-0.00417966
0.0051353
-0.00625996
0.00756919
-0.00907565
0.0107876
-0.0127071
0.0148279
-0.0171335
0.0195951
-0.0221695
0.0247978
-0.0274045
0.0298979
-0.0321709
0.0341037
-0.0355689
0.0364367
-0.0365832
0.0358993
-0.0343014
0.0317423
-0.028221
0.0237921
-0.0185718
0.0127406
-0.00654043
0.000266137
0.005749
-0.0111543
0.0156078
-0.018806
0.0205148
-0.0205985
0.0190432
-0.0159714
0.0116439
-0.00644768
0.000868147
0.00455294
-0.00927097
0.0127982
-0.0147628
0.0149603
-0.0133877
0.0102561
-0.00597474
0.00110799
0.00369355
-0.00777899
0.0105896
-0.0117441
0.011102
-0.00879428
0.00521158
-0.000949844
-0.00328166
0.00677653
-0.00895292
0.00945906
-0.00824187
0.00556328
-0.00195753
-0.00186586
0.00515751
-0.0072768
0.00782359
-0.00672451
0.00425277
-0.000973686
-0.00237565
0.00504871
-0.00645856
0.00631444
-0.00469217
0.00201853
0.00103017
-0.00369339
0.00531634
-0.00551695
0.00428533
-0.00198738
-0.000731909
0.00312218
-0.00453312
0.00459497
-0.0033221
0.00110778
0.00139148
-0.00345064
0.00449378
-0.00426908
0.00292638
-0.000971077
-0.000894042
0.00199057
-0.00187961
0.000499611
0.00182032
-0.00447819
0.00681025
-0.0083244
0.00887474
-0.00871472
0.00840773
-0.00862488
0.0099013
-0.0124397
0.0160338
-0.0201423
0.0240845
-0.0272852
0.029473
-0.0307528
0.0315249
-0.0322805
0.0333579
-0.0347596
0.0361107
-0.0367772
0.0361016
-0.0336582
0.0294235
-0.0237893
0.0174165
-0.0109935
0.00500756
0.000370078
-0.00523708
0.00977837
-0.0140427
0.0177922
-0.0205075
0.0215585
-0.020468
0.0171504
-0.0120109
0.00585605
0.000347193
-0.00575571
0.00985297
-0.0124886
0.0137586
-0.0138118
0.0127019
-0.0103752
0.00680162
-0.00216961
-0.00298067
0.00778849
-0.011286
0.0127133
-0.0117922
0.0088293
-0.00459896
6.61458e-05
0.00391708
-0.00680594
0.00838438
-0.00865171
0.00768385
-0.00557723
0.00251136
0.0011298
-0.00469561
0.0073614
-0.00837974
0.00738621
-0.00460038
0.000800324
0.00293854
-0.00562489
0.00667636
-0.00604789
0.00413659
-0.00155322
-0.00109801
0.00333122
-0.00478005
0.00516931
-0.00434554
0.00238394
0.000305182
-0.00298912
0.00481117
-0.00512182
0.00378274
-0.00126879
-0.00150948
0.00358521
-0.00432521
0.00363937
-0.00193062
-0.000145132
0.0019526
-0.00305056
0.00323286
-0.0024994
0.00103684
0.000774028
-0.00238491
0.00321333
-0.00287936
0.00143326
0.000585226
-0.00234272
0.00309434
-0.00254916
0.00100786
0.000807297
-0.00212414
0.00247563
-0.00185397
0.000623986
0.000699464
-0.00166119
0.00197887
-0.0015749
0.000582692
0.000658174
-0.00166505
0.00197976
-0.0014019
0.0001518
0.00118047
-0.00192287
0.00169651
-0.000641264
-0.000664059
0.00154127
-0.00159227
0.000883044
0.000155011
-0.00100221
0.00131206
-0.00102267
0.000315829
0.00049311
-0.00106628
0.00114751
-0.000670207
-0.000168321
0.00094894
-0.00122998
0.000819236
6.71147e-05
-0.00090484
0.00118733
-0.000758895
-8.65712e-05
0.00081432
-0.00100687
0.000612023
7.47738e-05
-0.00063985
0.000803079
-0.000534564
1.43995e-05
0.000484947
-0.000716764
0.000556704
-7.23413e-05
-0.000475271
0.000749397
-0.00054955
-2.03484e-05
0.000584642
-0.000748701
0.000395599
0.000215847
-0.000645199
0.000604527
-0.000161306
-0.000342751
0.000566522
-0.000403417
1.00647e-05
0.000344156
-0.000457846
0.000290372
4.60523e-05
-0.000351698
0.000435223
-0.000225385
-0.000155701
0.000441205
-0.000404224
5.33792e-05
0.000344008
-0.000467787
0.000218087
0.000193525
-0.000427754
0.000310125
3.47403e-05
-0.000315264
0.000328097
-0.000101927
-0.000167128
0.000288757
-0.00020187
-1.64759e-05
0.000216711
-0.000262414
0.00011194
0.000135685
-0.000287294
0.000203145
6.2765e-05
-0.000282096
0.000251635
5.90486e-06
-0.000252
0.000260376
-3.55217e-05
-0.000201903
0.000239289
-6.77228e-05
-0.000137988
0.000202839
-9.8004e-05
-6.91842e-05
0.000166404
-0.000130272
-6.94391e-06
0.000141758
-0.000162335
3.74319e-05
0.000133058
-0.000186537
5.72317e-05
0.000135384
-0.000194004
5.42698e-05
0.000137457
-0.000180763
3.93823e-05
0.000128262
-0.000152195
2.77346e-05
0.000104557
-0.000122162
3.0299e-05
7.44618e-05
-0.000105766
4.63433e-05
5.34483e-05
-0.000109294
6.2848e-05
5.37519e-05
-0.000124499
6.32419e-05
7.40336e-05
-0.000133179
4.06853e-05
9.82084e-05
-0.000120911
5.45991e-06
0.000106891
-8.98992e-05
-2.17877e-05
9.39222e-05
-5.85611e-05
-2.78368e-05
7.30184e-05
-4.51608e-05
-2.02946e-05
6.53945e-05
-4.88894e-05
-2.13568e-05
7.73349e-05
-4.85336e-05
-4.43613e-05
9.07016e-05
-2.42473e-05
-7.64316e-05
8.04395e-05
1.83497e-05
-8.94865e-05
4.35959e-05
5.10372e-05
-7.18594e-05
5.50305e-06
5.46658e-05
-4.36268e-05
-9.47208e-06
4.29969e-05
-3.19093e-05
-9.11384e-06
4.41878e-05
-3.37744e-05
-2.21569e-05
5.92562e-05
-1.93756e-05
-5.37096e-05
5.66352e-05
2.17632e-05
-7.08241e-05
1.88007e-05
5.7075e-05
-4.80004e-05
-2.48203e-05
5.37967e-05
-8.91142e-06
-3.66196e-05
2.86291e-05
7.25175e-06
-2.71757e-05
1.96148e-05
7.57065e-06
-3.23775e-05
1.99005e-05
2.69211e-05
-4.31177e-05
-7.10108e-06
5.3296e-05
-1.80621e-05
-4.78669e-05
3.86671e-05
3.04343e-05
-4.77306e-05
-8.453e-06
4.31938e-05
-1.0025e-05
-2.78057e-05
1.91792e-05
7.39578e-06
-1.69501e-05
1.15224e-05
5.05574e-06
-2.38824e-05
1.21644e-05
2.7321e-05
-2.94507e-05
-2.23778e-05
4.22349e-05
1.18258e-05
-4.77181e-05
4.72569e-07
4.52443e-05
-1.07602e-05
-3.60423e-05
1.63051e-05
2.25597e-05
-1.588e-05
-7.66052e-06
9.79458e-06
-6.07985e-06
4.16563e-07
1.68402e-05
-1.24948e-05
-2.37308e-05
2.39956e-05
2.67165e-05
-3.27506e-05
-2.63689e-05
3.7191e-05
2.35479e-05
-3.65195e-05
-1.91033e-05
3.07494e-05
1.36662e-05
-2.06461e-05
-7.56584e-06
7.60089e-06
8.79179e-07
6.54099e-06
6.40969e-06
-1.96946e-05
-1.41855e-05
2.97967e-05
2.1979e-05
-3.51172e-05
-2.88238e-05
3.4607e-05
3.32687e-05
-2.82356e-05
-3.36067e-05
1.72316e-05
2.83325e-05
-4.10597e-06
-1.67672e-05
-7.66322e-06
-3.05392e-07
1.4361e-05
2.02382e-05
-1.31321e-05
-3.86433e-05
3.21799e-06
5.02618e-05
1.30929e-05
-5.05949e-05
-3.03488e-05
3.79559e-05
4.11219e-05
-1.51921e-05
-3.85922e-05
-9.93881e-06
1.99397e-05
2.66223e-05
1.08237e-05
-2.52092e-05
-4.24264e-05
2.62938e-06
5.97692e-05
3.35977e-05
-5.10917e-05
-6.59503e-05
1.62074e-05
7.40381e-05
2.9138e-05
-4.67426e-05
-5.78056e-05
-6.76248e-06
4.59273e-05
5.59537e-05
8.3647e-06
-6.38256e-05
-7.51226e-05
1.36852e-05
0.000104613
6.90601e-05
-6.20078e-05
-0.000122514
-3.54503e-05
9.05591e-05
0.00011365
2.05809e-05
-9.16016e-05
-0.000122773
-3.7173e-05
0.000105249
0.000165612
5.10971e-05
-0.000146241
-0.000210575
-4.92251e-05
0.00017999
0.00023938
6.76509e-05
-0.000175463
-0.000277214
-0.000144048
0.000138168
0.00034825
0.000276551
-7.42926e-05
-0.000425702
-0.000440681
-5.42452e-05
0.000434093
0.000615715
0.000315967
-0.000278401
-0.000754932
-0.00073714
-0.000139449
0.000707418
0.00120092
0.000879247
-0.00018009
-0.00133492
-0.00178601
-0.00110667
0.000469518
0.00213149
0.00286559
0.00198105
-0.000416264
-0.00328898
-0.00506663
-0.00443684
-0.00108969
0.00398627
0.00875844
0.0108158
0.0082516
0.00054854
-0.0108291
-0.0224287
-0.0294443
-0.0267359
-0.0098616
0.0241106
0.0760864
0.144778
0.226962
0.31812
0.413242
0.507517
0.596802
0.67792
0.748847
0.808739
0.857741
0.896653
0.926639
0.949056
0.965358
0.976952
0.985037
0.990525
0.994108
0.996366
0.997789
0.99872
0.99932
0.999646
0.999771
0.999821
0.999898
1
1.00005
1.00001
0.999939
0.999929
1
1.00008
1.00006
0.999973
0.999906
0.999945
1.00005
1.00011
1.00005
0.999924
0.999878
0.999964
1.0001
1.00014
1.00003
0.999878
0.999839
0.999966
1.00014
1.00019
1.00005
0.999838
0.999763
0.999915
1.00017
1.00029
1.00015
0.999846
0.99964
0.999737
1.00009
1.00042
1.00042
1.00006
0.999585
0.999382
0.999664
1.00028
1.00077
1.00075
1.00012
0.999279
0.998812
0.999139
1.00017
1.00131
1.00179
1.00113
0.999538
0.997848
0.99712
0.998034
1.00044
1.00328
1.00504
1.00443
1.00111
0.996027
0.991222
0.989162
0.991758
0.999479
1.01083
1.0224
1.02943
1.02676
1.00989
0.975882
0.923882
0.855212
0.773065
0.681905
0.586744
0.492449
0.403193
0.322113
0.251178
0.191241
0.142221
0.103344
0.0733998
0.050972
0.0346198
0.0230033
0.0149564
0.00951748
0.00592853
0.00361539
0.00215866
0.00126198
0.000722364
0.000404834
0.000222111
0.00011928
6.26854e-05
3.22286e-05
1.6204e-05
7.96343e-06
3.82302e-06
1.79148e-06
8.1865e-07
3.64371e-07
1.57718e-07
6.62598e-08
2.69466e-08
1.05703e-08
3.97916e-09
1.42664e-09
4.81229e-10
1.49427e-10
4.07911e-11
8.58066e-12
5.16884e-13
-7.98753e-13
-6.28382e-13
-3.3005e-13
-1.44567e-13
-5.57275e-14
-1.90936e-14
-5.70391e-15
-1.38126e-15
-1.95532e-16
4.47837e-17
5.3934e-17
2.96781e-17
1.26162e-17
4.5051e-18
1.35443e-18
3.19123e-19
3.9721e-20
-1.29905e-20
-1.28247e-20
-6.45118e-21
-2.493e-21
-7.85037e-22
-1.92849e-22
-2.74223e-23
5.34027e-24
6.3047e-24
3.16846e-24
1.18019e-24
3.46567e-25
7.3805e-26
5.23456e-27
-4.98202e-27
-3.44822e-27
-1.44924e-27
-4.61444e-28
-1.08953e-28
-1.30299e-29
4.08899e-30
3.65392e-30
1.6155e-30
5.20382e-31
1.21896e-31
1.39565e-32
-4.72898e-33
-3.98499e-33
-1.68617e-33
-5.12181e-34
-1.07692e-34
-6.9915e-36
6.85972e-36
4.31733e-36
1.60982e-36
4.27521e-37
6.85209e-38
-5.27881e-39
-9.26107e-39
-4.27568e-39
-1.32205e-39
-2.74668e-40
-1.63742e-41
1.72205e-41
1.02047e-41
3.54385e-42
8.39021e-43
9.51656e-44
-2.8869e-44
-2.28581e-44
-8.6568e-45
-2.19933e-45
-3.03155e-46
4.74578e-47
4.97191e-47
1.98156e-47
5.17503e-48
7.52543e-49
-8.94903e-50
-1.07378e-49
-4.31051e-50
-1.11323e-50
-1.55722e-51
2.14994e-52
2.31491e-52
8.9363e-53
2.19536e-53
2.67013e-54
-5.95026e-55
-4.92478e-55
-1.75397e-55
-3.92795e-56
-3.46095e-57
1.62992e-57
1.01155e-57
3.21225e-58
6.20523e-59
1.90292e-60
-4.09403e-60
-1.95631e-60
-5.36692e-61
-8.12839e-62
6.54007e-63
9.18275e-63
3.47225e-63
7.89455e-64
7.22709e-65
-2.95963e-65
-1.81821e-65
-5.49413e-66
-9.53884e-67
1.15175e-68
7.66968e-68
3.13913e-68
7.42601e-69
7.65168e-70
-2.32252e-70
-1.52966e-70
-4.61915e-71
-7.82911e-72
1.57706e-73
6.34849e-73
2.47916e-73
5.50616e-74
4.49259e-75
-2.1345e-75
-1.18252e-75
-3.23477e-76
-4.57162e-77
4.61898e-78
5.06478e-78
1.68762e-78
3.13759e-79
6.12713e-81
-1.94085e-80
-8.04303e-81
-1.80718e-81
-1.51533e-82
6.50157e-83
3.55784e-83
9.33027e-84
1.18204e-84
-1.76942e-85
-1.47562e-85
-4.45137e-86
-7.08039e-87
2.81514e-88
5.77951e-88
1.99735e-88
3.70507e-89
7.58492e-91
-2.14975e-90
-8.5293e-91
-1.77498e-91
-1.04627e-92
7.63393e-93
3.49717e-93
7.96778e-94
6.81684e-95
-2.60352e-95
-1.38663e-95
-3.39744e-96
-3.55439e-97
8.59697e-98
5.34858e-98
1.38831e-98
1.64184e-99
-2.78174e-100
-2.01722e-100
-5.46982e-101
-6.97955e-102
8.97573e-103
7.4697e-103
2.08658e-103
2.78036e-104
-2.95361e-105
-2.7242e-105
-7.72837e-106
-1.04757e-106
1.01286e-107
9.80757e-108
2.79876e-108
2.65844e-109
)
;

boundaryField
{
    sides
    {
        type            zeroGradient;
    }
    empty
    {
        type            empty;
    }
}


// ************************************************************************* //
