/*--------------------------------*- C++ -*----------------------------------*\
| =========                 |                                                 |
| \\      /  F ield         | OpenFOAM: The Open Source CFD Toolbox           |
|  \\    /   O peration     | Version:  2312                                  |
|   \\  /    A nd           | Website:  www.openfoam.com                      |
|    \\/     M anipulation  |                                                 |
\*---------------------------------------------------------------------------*/
FoamFile
{
    version     2.0;
    format      ascii;
    arch        "LSB;label=32;scalar=64";
    class       volScalarField;
    location    "2.4";
    object      T;
}
// * * * * * * * * * * * * * * * * * * * * * * * * * * * * * * * * * * * * * //

dimensions      [0 0 0 1 0 0 0];

internalField   nonuniform List<scalar> 
1000
(
3.86504e-56
-7.92197e-56
1.99499e-55
-4.96685e-55
1.23424e-54
-3.06078e-54
7.57475e-54
-1.8707e-53
4.61036e-53
-1.13386e-52
2.78276e-52
-6.81517e-52
1.66556e-51
-4.06187e-51
9.8848e-51
-2.40039e-50
5.81657e-50
-1.40643e-49
3.39337e-49
-8.16966e-49
1.9626e-48
-4.7045e-48
1.12524e-47
-2.68546e-47
6.3949e-47
-1.51945e-46
3.60226e-46
-8.52104e-46
2.01111e-45
-4.73591e-45
1.11273e-44
-2.60848e-44
6.10097e-44
-1.4237e-43
3.31465e-43
-7.69941e-43
1.78432e-42
-4.1255e-42
9.5163e-42
-2.18999e-41
5.02799e-41
-1.15165e-40
2.63158e-40
-5.99897e-40
1.36426e-39
-3.09511e-39
7.00498e-39
-1.58155e-38
3.56209e-38
-8.00319e-38
1.79372e-37
-4.0103e-37
8.9438e-37
-1.9897e-36
4.41537e-36
-9.77363e-36
2.15799e-35
-4.75273e-35
1.04408e-34
-2.28776e-34
5.00003e-34
-1.08997e-33
2.3699e-33
-5.13942e-33
1.11164e-32
-2.3981e-32
5.15972e-32
-1.10721e-31
2.36961e-31
-5.05777e-31
1.07664e-30
-2.28564e-30
4.83906e-30
-1.02171e-29
2.15129e-29
-4.51723e-29
9.45885e-29
-1.97512e-28
4.11271e-28
-8.53964e-28
1.76815e-27
-3.65057e-27
7.51549e-27
-1.54278e-26
3.15785e-26
-6.44486e-26
1.31149e-25
-2.66095e-25
5.38299e-25
-1.08572e-24
2.18328e-24
-4.37717e-24
8.74907e-24
-1.74344e-23
3.46356e-23
-6.8596e-23
1.35434e-22
-2.66565e-22
5.23016e-22
-1.02295e-21
1.99442e-21
-3.87605e-21
7.50872e-21
-1.44989e-20
2.79057e-20
-5.35334e-20
1.02359e-19
-1.95066e-19
3.705e-19
-7.01346e-19
1.32314e-18
-2.4877e-18
4.66122e-18
-8.70362e-18
1.61953e-17
-3.00299e-17
5.54863e-17
-1.02158e-16
1.87416e-16
-3.42588e-16
6.23964e-16
-1.13229e-15
2.04715e-15
-3.68749e-15
6.61734e-15
-1.18303e-14
2.10696e-14
-3.7381e-14
6.60642e-14
-1.16302e-13
2.0394e-13
-3.56201e-13
6.19658e-13
-1.07364e-12
1.85267e-12
-3.18387e-12
5.44897e-12
-9.28668e-12
1.57607e-11
-2.66344e-11
4.48171e-11
-7.50867e-11
1.25251e-10
-2.08007e-10
3.43903e-10
-5.66024e-10
9.27373e-10
-1.51243e-09
2.45512e-09
-3.96668e-09
6.37848e-09
-1.02075e-08
1.62557e-08
-2.57606e-08
4.06205e-08
-6.37302e-08
9.94787e-08
-1.5448e-07
2.3864e-07
-3.66701e-07
5.60466e-07
-8.51969e-07
1.28796e-06
-1.9362e-06
2.89423e-06
-4.30144e-06
6.35557e-06
-9.33503e-06
1.36288e-05
-1.97757e-05
2.85168e-05
-4.08614e-05
5.81729e-05
-8.22758e-05
0.000115588
-0.000161282
0.000223478
-0.000307462
0.000419944
-0.00056933
0.000766011
-0.00102264
0.00135439
-0.00177913
0.00231749
-0.00299271
0.00383037
-0.00485758
0.00610197
-0.00759007
0.00934519
-0.0113846
0.0137166
-0.016336
0.019221
-0.0223283
0.0255897
-0.0289091
0.0321608
-0.0351905
0.0378183
-0.0398461
0.0410674
-0.0412821
0.0403147
-0.0380342
0.0343761
-0.0293628
0.0231202
-0.0158878
0.00801894
3.15971e-05
-0.0077335
0.0145212
-0.0198464
0.0232385
-0.0243671
0.0230985
-0.0195363
0.0140381
-0.00720086
-0.000188453
0.00723671
-0.0130545
0.0168798
-0.018198
0.0168371
-0.0130184
0.00734886
-0.000746177
-0.00569621
0.0108885
-0.0139387
0.0143265
-0.0120185
0.0074973
-0.00168725
-0.00421632
0.00898699
-0.0116294
0.0116062
-0.00897357
0.00438663
0.00103823
-0.00598028
0.00923521
-0.0100216
0.00819178
-0.00428423
-0.000607438
0.00512356
-0.00801373
0.00849477
-0.00648533
0.00263998
0.00183836
-0.00556086
0.0073846
-0.00677861
0.00400153
-2.34157e-05
-0.00379327
0.0061544
-0.0062822
0.00419149
-0.000688367
-0.00291883
0.00529963
-0.00559907
0.00376356
-0.000563292
-0.00270744
0.00474272
-0.00474969
0.002771
0.000334668
-0.0032554
0.00478653
-0.004352
0.00225737
0.00044409
-0.0024211
0.00266374
-0.000939101
-0.0021124
0.00529287
-0.00743224
0.00796476
-0.00721391
0.00623873
-0.00630999
0.00827442
-0.0121298
0.0170331
-0.0217419
0.0252603
-0.0273428
0.0285808
-0.0300166
0.0324934
-0.036102
0.0400422
-0.0429856
0.0437433
-0.0418591
0.0377878
-0.0325585
0.0271321
-0.0218498
0.0163191
-0.00981578
0.00195041
0.00682712
-0.0152259
0.0216434
-0.0249149
0.0248268
-0.0220853
0.0177867
-0.0127626
0.00724963
-0.00109861
-0.00565305
0.0122942
-0.0174472
0.0196368
-0.0180794
0.0131717
-0.00634356
-0.000631424
0.00640746
-0.010426
0.0126976
-0.013283
0.011967
-0.00843959
0.00284895
0.00375862
-0.00956981
0.0127466
-0.0123361
0.00873737
-0.00341442
-0.00191562
0.00603603
-0.00845339
0.00909447
-0.00791455
0.00487064
-0.000303408
-0.00469397
0.00842477
-0.00935198
0.0070086
-0.00237189
-0.00262651
0.0061323
-0.00722286
0.00605944
-0.003414
0.000113052
0.00313593
-0.00557543
0.00633452
-0.00480452
0.00125053
0.00295035
-0.00586578
0.00610947
-0.00369528
-1.77128e-05
0.00322861
-0.00472243
0.00429428
-0.00246018
-4.93435e-05
0.00250573
-0.00411813
0.00411325
-0.00220006
-0.000927852
0.00368862
-0.00450653
0.00290768
0.000103323
-0.00274843
0.00368546
-0.00274395
0.000726491
0.00132014
-0.0026362
0.00281424
-0.00173336
-0.00029246
0.00234068
-0.00318183
0.00212326
0.000283539
-0.00246882
0.00298763
-0.00162049
-0.000549599
0.0020867
-0.00224139
0.00122136
0.000265039
-0.00151708
0.00200108
-0.00140255
-0.00011706
0.00171098
-0.00222965
0.00115516
0.000781423
-0.00208913
0.00179023
-0.00024788
-0.00125759
0.0016956
-0.0010042
-0.00016112
0.00109012
-0.00135733
0.000819811
0.000312267
-0.00135135
0.0014421
-0.000349543
-0.00109287
0.00161659
-0.000752902
-0.000674154
0.0013912
-0.000912969
-0.000160762
0.000919313
-0.000942854
0.000375612
0.000407125
-0.000955611
0.000828669
3.37813e-05
-0.000980263
0.00107935
-0.000133159
-0.000947913
0.00107058
-0.000171283
-0.000768662
0.00087638
-0.000237594
-0.000447358
0.000681345
-0.000426076
-0.000128197
0.000645983
-0.000663211
7.53891e-06
0.000757224
-0.000765387
-7.61087e-05
0.000830074
-0.000641277
-0.000203924
0.000709891
-0.00043091
-0.000166966
0.000479767
-0.000374976
1.43491e-05
0.000391969
-0.000511035
8.64283e-05
0.000538646
-0.000590166
-9.85895e-05
0.000684928
-0.000408998
-0.000332519
0.000578797
-0.00013947
-0.000326669
0.000354227
-9.5993e-05
-0.00018213
0.000346132
-0.00020333
-0.000254999
0.000500455
-8.08346e-05
-0.000511327
0.000409733
0.000258508
-0.00051806
6.64386e-05
0.000361016
-0.000252355
-6.1762e-05
0.000200598
-0.000191199
3.61325e-05
0.000264389
-0.000309718
-0.000144293
0.000473951
-7.63435e-05
-0.000460636
0.000265158
0.000299493
-0.000322948
-8.51945e-05
0.000225033
-7.96108e-05
-1.91401e-05
0.000132619
-0.000208407
-7.1765e-05
0.000375281
-5.49667e-05
-0.000434153
0.0001781
0.000382498
-0.000237635
-0.000253048
0.00020408
9.39429e-05
-8.45009e-05
5.10548e-05
-8.46201e-05
-0.000154931
0.000252109
0.000209907
-0.000368255
-0.000221911
0.000397973
0.000201429
-0.000328921
-0.000155598
0.000174327
8.52299e-05
2.90795e-05
1.18063e-05
-0.000227905
-0.00013218
0.000363924
0.00025771
-0.000390646
-0.000350995
0.000292146
0.000362085
-9.81128e-05
-0.000249017
-0.000114394
7.91151e-06
0.000241934
0.00030135
-0.000200726
-0.000555124
-1.5611e-05
0.000609887
0.000299035
-0.000387468
-0.000452001
-3.74625e-05
0.000295532
0.000419579
0.000176003
-0.000459024
-0.00070255
3.54241e-05
0.000861198
0.00059126
-0.000394716
-0.000849349
-0.000434198
0.000308211
0.000857234
0.000750147
-0.000235167
-0.00128321
-0.00106173
0.000422264
0.00157608
0.00120968
-0.00022856
-0.00152798
-0.00177728
-0.000594078
0.00148597
0.00276989
0.00174032
-0.00108195
-0.00339196
-0.00330643
-0.000776038
0.0027773
0.00524447
0.00459394
0.000298165
-0.00549291
-0.00895634
-0.00732144
-0.000669593
0.00832425
0.0154928
0.0163936
0.00823941
-0.00789926
-0.0265687
-0.0397588
-0.0393679
-0.018779
0.0260314
0.0952816
0.185021
0.288502
0.398263
0.507304
0.609421
0.699836
0.776075
0.837933
0.886384
0.922742
0.948762
0.966811
0.979235
0.987584
0.992742
0.995641
0.997398
0.998701
0.999531
0.999738
0.999638
0.999736
1.00007
1.00022
0.999993
0.99975
0.999871
1.00019
1.00024
0.99993
0.999713
0.999908
1.00025
1.00025
0.99989
0.999672
0.999906
1.00029
1.00029
0.999895
0.999618
0.999841
1.00029
1.00039
0.999977
0.999568
0.999687
1.00022
1.00051
1.00019
0.999605
0.999453
0.999953
1.00055
1.00055
0.999902
0.999299
0.999439
1.00023
1.00085
1.0006
0.999666
0.998984
0.999298
1.00039
1.00122
1.00092
0.99966
0.998558
0.998697
1.0001
1.00163
1.0019
1.00049
0.998399
0.997342
0.998372
1.00097
1.00328
1.00342
1.00089
0.997112
0.994638
0.995513
0.999826
1.00539
1.00882
1.00741
1.00081
0.9916
0.984356
0.983664
0.991921
1.00786
1.0264
1.03977
1.03954
1.0188
0.973799
0.904661
0.815139
0.711593
0.601597
0.492565
0.390688
0.300327
0.223859
0.161882
0.113627
0.0774514
0.0512886
0.0330072
0.0206499
0.0125614
0.00743058
0.00427457
0.00239123
0.00130059
0.000687583
0.000353175
0.000176149
8.52399e-05
3.99781e-05
1.81472e-05
7.95791e-06
3.36287e-06
1.36477e-06
5.2934e-07
1.94804e-07
6.72431e-08
2.13358e-08
5.97036e-09
1.31723e-09
1.19953e-10
-9.12453e-11
-7.79954e-11
-4.09836e-11
-1.75023e-11
-6.44093e-12
-2.04843e-12
-5.38178e-13
-9.67038e-14
3.39088e-15
1.37964e-14
8.29619e-15
3.5595e-15
1.23755e-15
3.48932e-16
7.08593e-17
3.19279e-18
-6.07946e-18
-3.98459e-18
-1.68507e-18
-5.52126e-19
-1.38334e-19
-2.03983e-20
3.11269e-21
3.94886e-21
1.91067e-21
6.62344e-22
1.71861e-22
2.71605e-23
-2.60257e-24
-4.18551e-24
-2.0169e-24
-6.72367e-25
-1.61086e-25
-1.97375e-26
5.29459e-27
4.71116e-27
1.9585e-27
5.68802e-28
1.08129e-28
1.88913e-30
-9.18422e-30
-4.84717e-30
-1.60016e-30
-3.58407e-31
-3.28734e-32
1.62078e-32
1.09739e-32
3.93902e-33
9.47212e-34
1.11641e-34
-2.93536e-35
-2.38639e-35
-8.85725e-36
-2.151e-36
-2.57275e-37
6.24144e-38
5.10153e-38
1.84887e-38
4.28878e-39
4.36309e-40
-1.55075e-40
-1.06639e-40
-3.56995e-41
-7.44159e-42
-4.54894e-43
3.95354e-43
2.12287e-43
6.25329e-44
1.07555e-44
-2.04433e-46
-9.30974e-46
-3.88464e-46
-9.58648e-47
-1.13368e-47
2.48738e-48
1.92427e-48
6.28119e-49
1.20269e-49
3.46526e-51
-7.52395e-51
-3.39325e-51
-8.52294e-52
-1.02736e-52
2.00626e-53
1.56904e-53
4.94531e-54
8.77511e-55
2.59819e-58
-6.24867e-56
-2.50646e-56
-5.59031e-57
-4.5997e-58
2.09044e-58
1.14426e-58
3.04315e-59
4.00474e-60
-5.29835e-61
-4.79093e-61
-1.48995e-61
-2.48789e-62
5.08519e-64
1.8629e-63
6.74132e-64
1.31401e-64
4.94608e-66
-6.79814e-66
-2.86831e-66
-6.2536e-67
-4.57737e-68
2.35388e-68
1.16241e-68
2.75751e-69
2.66081e-70
-7.84213e-71
-4.53201e-71
-1.1447e-71
-1.27947e-72
2.56314e-73
1.71351e-73
4.51841e-74
5.46791e-75
-8.43093e-76
-6.32061e-76
-1.70663e-76
-2.13671e-77
2.86691e-78
2.28358e-78
6.19096e-79
7.72888e-80
-1.02501e-80
-8.09452e-81
-2.1604e-81
-2.59648e-82
3.84155e-83
2.81364e-83
7.25047e-84
8.06908e-85
-1.47875e-85
-9.56759e-86
-2.33562e-86
-2.28887e-87
5.69767e-88
3.17038e-88
7.19475e-89
5.74186e-90
-2.15053e-90
-1.01875e-90
-2.10691e-91
-1.17131e-92
7.83471e-93
3.15667e-93
5.81301e-94
1.33872e-95
-2.72948e-95
-9.37223e-96
-1.48966e-96
3.40844e-98
9.0384e-98
2.64681e-98
3.45739e-99
-3.25326e-100
-2.83189e-100
-7.04514e-101
-6.8862e-102
1.55978e-102
8.35874e-103
1.745e-103
9.98545e-105
-5.94621e-105
-2.3121e-105
-3.94065e-106
-8.6435e-109
1.97378e-107
5.94936e-108
7.80112e-109
-6.67731e-110
-5.88587e-110
-1.4077e-110
-1.22489e-111
3.37412e-112
1.59445e-112
3.00137e-113
9.28489e-115
-1.1978e-114
-3.92565e-115
-5.53174e-116
3.05898e-117
3.54952e-117
8.70659e-118
7.87648e-119
-1.91538e-119
-9.19992e-120
-1.69966e-120
-4.52355e-122
6.74427e-122
2.1101e-122
2.75796e-123
-2.14542e-124
-1.88373e-124
-4.2464e-125
-3.06564e-126
1.11124e-126
4.47892e-127
7.23762e-128
-6.00898e-130
-3.46394e-129
-9.1919e-130
-9.35748e-131
1.60806e-131
8.5735e-132
1.59665e-132
4.69674e-134
-5.86063e-134
-1.78172e-134
-2.17009e-135
2.08417e-136
1.51178e-136
3.10016e-137
1.59018e-138
-9.34221e-139
-3.15605e-139
-4.24325e-140
2.53502e-141
2.4957e-141
5.42426e-142
3.41324e-143
-1.43497e-143
-5.17564e-144
-7.27432e-145
3.20009e-146
3.90103e-146
8.66244e-147
5.76949e-148
-2.15985e-148
-7.91693e-149
-1.11177e-149
4.73021e-151
5.80745e-151
1.27025e-151
8.0383e-153
-3.20409e-153
-1.13268e-153
-1.52207e-154
8.21784e-156
8.23476e-156
1.71155e-156
9.10067e-158
-4.65292e-158
-1.51335e-158
-1.86007e-159
1.58279e-160
8.47456e-161
)
;

boundaryField
{
    sides
    {
        type            zeroGradient;
    }
    empty
    {
        type            empty;
    }
}


// ************************************************************************* //
