/*--------------------------------*- C++ -*----------------------------------*\
| =========                 |                                                 |
| \\      /  F ield         | OpenFOAM: The Open Source CFD Toolbox           |
|  \\    /   O peration     | Version:  2312                                  |
|   \\  /    A nd           | Website:  www.openfoam.com                      |
|    \\/     M anipulation  |                                                 |
\*---------------------------------------------------------------------------*/
FoamFile
{
    version     2.0;
    format      ascii;
    arch        "LSB;label=32;scalar=64";
    class       volScalarField;
    location    "2.6";
    object      T;
}
// * * * * * * * * * * * * * * * * * * * * * * * * * * * * * * * * * * * * * //

dimensions      [0 0 0 1 0 0 0];

internalField   nonuniform List<scalar> 
1000
(
0
0
0
0
0
0
0
0
0
0
0
0
0
0
0
0
0
0
0
0
0
0
0
0
0
0
0
0
0
0
0
0
0
0
0
0
0
0
0
0
0
0
0
0
0
0
0
0
0
0
0
0
0
0
0
0
0
0
0
0
0
0
0
0
0
0
0
0
0
0
0
0
0
0
0
0
0
0
0
0
0
0
0
0
0
0
0
0
0
0
0
0
0
0
0
0
0
0
0
0
0
0
0
0
0
0
0
0
0
0
0
0
0
0
0
0
0
0
0
0
0
0
0
0
0
0
0
0
0
0
0
0
0
0
0
0
0
0
0
0
0
0
0
0
0
0
0
0
0
0
0
0
0
0
0
0
0
0
0
0
0
0
0
0
0
0
0
0
0
0
0
0
0
-4.94066e-324
2.96439e-323
-4.94066e-324
2.96439e-323
-4.94066e-324
2.96439e-323
-4.94066e-324
2.96439e-323
-4.94066e-324
2.96439e-323
-4.94066e-324
2.96439e-323
-4.94066e-324
2.96439e-323
-4.94066e-324
2.96439e-323
-4.94066e-324
2.96439e-323
-4.94066e-324
2.96439e-323
-4.94066e-324
2.96439e-323
-4.94066e-324
2.96439e-323
-4.94066e-324
2.96439e-323
-4.94066e-324
2.96439e-323
-4.94066e-324
2.96439e-323
-4.94066e-324
2.96439e-323
-4.94066e-324
2.96439e-323
-4.94066e-324
2.96439e-323
-4.94066e-324
2.96439e-323
-4.94066e-324
2.96439e-323
-4.94066e-324
2.96439e-323
-4.94066e-324
2.96439e-323
-4.94066e-324
2.96439e-323
-4.94066e-324
2.96439e-323
-4.94066e-324
2.96439e-323
-4.94066e-324
2.96439e-323
-4.94066e-324
2.96439e-323
-4.94066e-324
2.96439e-323
-4.94066e-324
2.96439e-323
-4.94066e-324
2.96439e-323
-4.94066e-324
2.96439e-323
-4.94066e-324
2.96439e-323
-4.94066e-324
2.96439e-323
-4.94066e-324
2.96439e-323
-4.94066e-324
2.96439e-323
-4.94066e-324
2.96439e-323
-4.94066e-324
1.58101e-322
-1.75887e-321
2.39029e-320
-2.94527e-319
3.95277e-318
-4.87509e-317
6.54206e-316
-8.07013e-315
1.08225e-313
-1.33708e-312
1.78795e-311
-2.21991e-310
2.946e-309
-3.69717e-308
4.83943e-307
-6.17201e-306
7.93914e-305
-1.0303e-303
1.30375e-302
-1.71662e-301
2.14571e-300
-2.85355e-299
3.53932e-298
-4.7338e-297
5.84894e-296
-7.84131e-295
9.67659e-294
-1.29805e-292
1.60134e-291
-2.14871e-290
2.64999e-289
-3.55644e-288
4.38683e-287
-5.88309e-286
7.2687e-285
-9.7188e-284
1.20682e-282
-1.60137e-281
2.00985e-280
-2.63071e-279
3.35507e-278
-4.31585e-277
5.60054e-276
-7.08741e-275
9.33141e-274
-1.16643e-272
1.55119e-271
-1.92397e-270
2.57334e-269
-3.17941e-268
4.26273e-267
-5.25989e-266
7.05675e-265
-8.70408e-264
1.16816e-262
-1.4404e-261
1.93347e-260
-2.38439e-259
3.19884e-258
-3.94895e-257
5.28951e-256
-6.54498e-255
8.73788e-254
-1.0862e-252
1.4414e-251
-1.80493e-250
2.3759e-249
-2.99943e-248
3.91851e-247
-4.97923e-246
6.46969e-245
-8.25881e-244
1.06857e-242
-1.36998e-241
1.76424e-240
-2.27334e-239
2.91266e-238
-3.77064e-237
4.81326e-236
-6.24586e-235
7.96549e-234
-1.03329e-232
1.31939e-231
-1.70873e-230
2.18534e-229
-2.82659e-228
3.61819e-227
-4.67718e-226
5.98976e-225
-7.73922e-224
9.91625e-223
-1.28065e-221
1.64136e-220
-2.11976e-219
2.71614e-218
-3.50874e-217
4.49633e-216
-5.80333e-215
7.4514e-214
-9.58738e-213
1.236e-211
-1.58319e-210
2.0498e-209
-2.61647e-208
3.39524e-207
-4.33011e-206
5.61689e-205
-7.17231e-204
9.28864e-203
-1.18794e-201
1.53658e-200
-1.96677e-199
2.54268e-198
-3.25582e-197
4.20731e-196
-5.39027e-195
6.96171e-194
-8.92261e-193
1.15225e-191
-1.47661e-190
1.90717e-189
-2.44445e-188
3.15445e-187
-4.05081e-186
5.21159e-185
-6.71899e-184
8.606e-183
-1.11439e-181
1.42195e-180
-1.84657e-179
2.35195e-178
-3.05685e-177
3.89312e-176
-5.05798e-175
6.44565e-174
-8.36869e-173
1.06713e-171
-1.38474e-170
1.76659e-169
-2.29146e-168
2.92428e-167
-3.79227e-166
4.84006e-165
-6.27669e-164
8.01061e-163
-1.03878e-161
1.32621e-160
-1.71815e-159
2.19755e-158
-2.83888e-157
3.64506e-156
-4.68718e-155
6.0476e-154
-7.74087e-153
1.00265e-151
-1.27965e-150
1.66064e-149
-2.11731e-148
2.74854e-147
-3.50494e-146
4.54781e-145
-5.80313e-144
7.52382e-143
-9.60947e-142
1.24459e-140
-1.59137e-139
2.05874e-138
-5.07761e-138
-8.20634e-137
1.33848e-135
-6.20047e-136
-6.03064e-134
6.88685e-133
1.63485e-132
-4.42824e-131
3.50955e-132
2.06945e-129
-7.41145e-129
-9.09218e-128
8.21937e-127
3.64458e-126
-5.94101e-125
-1.40815e-124
3.46868e-123
5.53782e-123
-1.82338e-121
-2.77398e-121
8.80273e-120
1.40247e-119
-4.07079e-118
-9.05806e-118
1.61367e-116
5.14591e-116
-5.69034e-115
-3.60529e-114
1.42489e-113
1.99026e-112
-2.21611e-112
-1.18894e-110
-7.65001e-111
5.27142e-109
1.06777e-108
-1.22494e-107
-8.80898e-107
1.39912e-106
5.41689e-105
4.55369e-105
-1.74952e-103
-7.16255e-103
2.00633e-102
5.54142e-101
5.1793e-101
-1.33654e-99
-6.49777e-99
9.67549e-99
4.58868e-97
8.58864e-97
-5.27218e-96
-8.78981e-95
-7.71701e-95
1.72454e-93
1.37335e-92
3.4723e-93
-4.14522e-91
-2.35772e-90
2.09901e-91
8.00733e-89
4.03011e-88
-6.1115e-89
-1.3193e-86
-7.52835e-86
-1.67527e-86
1.81845e-84
1.44442e-83
1.03114e-83
-2.06328e-82
-2.85237e-81
-4.14016e-81
1.64058e-80
3.48188e-79
1.12251e-78
-3.79447e-79
-3.07362e-77
-2.72955e-76
-2.83127e-76
1.8238e-75
3.14507e-74
1.3116e-73
5.18708e-74
-1.82014e-72
-2.29085e-71
-5.87546e-71
1.56184e-71
1.24986e-69
1.28267e-68
2.40076e-68
-2.19066e-68
-6.66325e-67
-7.12858e-66
-6.66962e-65
-5.95831e-64
-5.18943e-63
-4.42629e-62
-3.70885e-61
-1.89049e-60
-1.91577e-60
6.35019e-60
9.13963e-59
7.88271e-58
6.13495e-57
4.58965e-56
3.35106e-55
2.39791e-54
1.6838e-53
1.16085e-52
7.85963e-52
5.22709e-51
3.41527e-50
2.19265e-49
1.38345e-48
8.57962e-48
5.23061e-47
3.13528e-46
1.848e-45
1.07123e-44
6.1077e-44
3.42562e-43
1.89026e-42
1.0263e-41
5.48335e-41
2.88326e-40
1.49222e-39
7.6022e-39
3.81279e-38
1.88273e-37
9.15399e-37
4.38279e-36
2.06655e-35
9.59688e-35
4.38974e-34
1.9779e-33
8.77925e-33
3.83911e-32
1.65406e-31
7.02179e-31
2.9373e-30
1.21081e-29
4.91878e-29
1.96931e-28
7.7709e-28
3.02237e-27
1.15868e-26
4.37862e-26
1.63113e-25
5.99009e-25
2.16864e-24
7.74043e-24
2.72383e-23
9.4503e-23
3.23276e-22
1.09037e-21
3.62621e-21
1.18912e-20
3.84497e-20
1.22593e-19
3.85431e-19
1.19492e-18
3.65301e-18
1.10123e-17
3.27361e-17
9.59605e-17
2.7738e-16
7.90631e-16
2.2222e-15
6.15883e-15
1.68311e-14
4.53546e-14
1.20507e-13
3.15704e-13
8.15473e-13
2.07678e-12
5.21443e-12
1.29076e-11
3.14983e-11
7.57733e-11
1.79685e-10
4.20002e-10
9.67639e-10
2.19721e-09
4.91702e-09
1.08436e-08
2.35644e-08
5.04566e-08
1.06445e-07
2.21228e-07
4.52924e-07
9.13354e-07
1.814e-06
3.54794e-06
6.83288e-06
1.2956e-05
2.41837e-05
4.44325e-05
8.03425e-05
0.000142953
0.000250251
0.000430945
0.000729893
0.00121564
0.00199059
0.00320406
0.00506838
0.00787759
0.0120274
0.0180346
0.0265511
0.0383699
0.0544149
0.0757086
0.103313
0.138237
0.181319
0.233075
0.293551
0.362175
0.437662
0.517979
0.600418
0.68177
0.758619
0.827697
0.886279
0.932519
0.96567
0.986237
0.996245
0.999446
0.999967
0.999999
1
1
1
1
1
1
1
1
1
1
1
1
1
1
1
1
1
1
1
1
1
1
1
1
1
1
1
1
1
1
1
1
1
1
1
1
1
1
1
1
1
1
1
1
1
1
1
1
1
1
1
1
1
1
1
1
1
0.999999
0.999998
0.999996
0.999993
0.999987
0.999976
0.999955
0.99992
0.999857
0.999749
0.999568
0.999269
0.998783
0.998007
0.996792
0.994926
0.992115
0.987962
0.98195
0.973428
0.961601
0.945547
0.924243
0.896626
0.861688
0.818592
0.766822
0.706333
0.637698
0.562204
0.481884
0.399448
0.318104
0.241269
0.172208
0.113645
0.0674262
0.0342942
0.0137438
0.00374761
0.000552208
3.24702e-05
5.48961e-07
1.97703e-09
1.18514e-12
1.11482e-16
1.00085e-20
8.90628e-25
7.84615e-29
6.85031e-33
5.93925e-37
5.12521e-41
4.41144e-45
3.79394e-49
3.26409e-53
2.81113e-57
2.42399e-61
2.09245e-65
1.80768e-69
1.56237e-73
1.35054e-77
1.16736e-81
1.00884e-85
8.71667e-90
7.52997e-94
6.50393e-98
5.61724e-102
4.85129e-106
4.18982e-110
3.61864e-114
3.12543e-118
2.69952e-122
2.33171e-126
2.01404e-130
1.73965e-134
1.50265e-138
1.29792e-142
1.12108e-146
9.68331e-151
8.36388e-155
7.22422e-159
6.23983e-163
5.38957e-167
4.65516e-171
4.02081e-175
3.4729e-179
2.99964e-183
2.59086e-187
2.23778e-191
1.93281e-195
1.66939e-199
1.44186e-203
1.24534e-207
1.0756e-211
9.28984e-216
8.02352e-220
6.92977e-224
5.98509e-228
5.16915e-232
4.46443e-236
3.85576e-240
3.33005e-244
2.87601e-248
2.48386e-252
2.14516e-256
1.85264e-260
1.6e-264
1.3818e-268
1.19335e-272
1.0306e-276
8.90039e-281
7.68643e-285
6.63801e-289
5.73256e-293
4.95058e-297
4.27525e-301
3.69202e-305
3.18834e-309
2.75335e-313
2.3777e-317
2.04543e-321
0
0
0
0
0
0
0
0
0
0
0
0
0
0
0
0
0
0
0
0
0
0
0
0
0
0
0
0
0
0
0
0
0
0
0
0
0
0
0
0
0
0
0
0
0
0
0
0
0
0
0
0
0
0
0
0
0
0
0
0
0
0
0
0
0
0
0
0
0
0
0
0
0
0
0
0
0
0
0
0
0
0
0
0
0
0
0
0
0
0
0
0
0
0
0
0
0
0
0
0
0
0
0
0
0
0
0
0
0
0
0
0
0
0
0
0
0
0
0
0
0
0
0
0
0
0
0
0
0
0
0
0
0
0
0
0
0
0
0
0
0
0
0
0
0
0
0
0
0
0
0
0
0
0
0
0
0
0
0
0
0
0
0
0
0
0
0
0
0
0
0
0
0
0
0
0
0
)
;

boundaryField
{
    sides
    {
        type            zeroGradient;
    }
    empty
    {
        type            empty;
    }
}


// ************************************************************************* //
