/*--------------------------------*- C++ -*----------------------------------*\
| =========                 |                                                 |
| \\      /  F ield         | OpenFOAM: The Open Source CFD Toolbox           |
|  \\    /   O peration     | Version:  2312                                  |
|   \\  /    A nd           | Website:  www.openfoam.com                      |
|    \\/     M anipulation  |                                                 |
\*---------------------------------------------------------------------------*/
FoamFile
{
    version     2.0;
    format      ascii;
    arch        "LSB;label=32;scalar=64";
    class       volScalarField;
    location    "2.5";
    object      T;
}
// * * * * * * * * * * * * * * * * * * * * * * * * * * * * * * * * * * * * * //

dimensions      [0 0 0 1 0 0 0];

internalField   nonuniform List<scalar> 
1000
(
0
0
0
0
0
0
0
0
0
0
0
0
0
0
0
0
0
0
0
0
0
0
0
0
0
0
0
0
0
0
0
0
0
0
0
0
0
0
0
0
0
0
0
0
0
0
0
0
0
0
0
0
0
0
0
0
0
0
0
0
0
0
0
0
0
0
0
0
0
0
0
0
0
0
0
0
0
0
0
0
0
0
0
0
0
0
0
0
0
0
0
0
0
0
0
0
0
0
0
0
0
0
0
0
0
0
0
0
0
0
0
0
0
0
0
0
0
0
0
0
0
0
0
0
0
0
0
0
0
0
0
0
0
0
0
0
0
0
0
0
0
0
0
0
0
0
0
0
0
0
0
0
0
0
0
0
0
0
0
0
0
0
0
0
0
0
0
0
0
0
0
0
0
0
0
0
0
0
0
0
0
0
0
0
0
0
0
0
0
0
0
0
0
0
0
0
0
0
0
0
0
0
0
0
0
0
0
0
0
0
0
0
0
0
0
0
0
0
0
0
0
0
0
0
0
0
0
0
0
0
0
0
0
0
0
0
0
0
0
0
0
0
0
0
0
0
0
0
0
0
0
0
2.76183e-321
2.95283e-319
3.08952e-317
3.21672e-315
3.3333e-313
3.43767e-311
3.52835e-309
3.604e-307
3.66347e-305
3.7058e-303
3.73029e-301
3.73646e-299
3.72413e-297
3.69338e-295
3.64454e-293
3.57825e-291
3.49538e-289
3.39705e-287
3.28457e-285
3.15945e-283
3.02335e-281
2.87803e-279
2.72532e-277
2.5671e-275
2.40524e-273
2.24154e-271
2.07776e-269
1.91553e-267
1.75636e-265
1.60161e-263
1.45244e-261
1.30987e-259
1.1747e-257
1.04757e-255
9.28923e-254
8.19029e-252
7.18003e-250
6.25814e-248
5.42299e-246
4.67188e-244
4.00115e-242
3.40646e-240
2.88289e-238
2.42518e-236
2.02782e-234
1.68528e-232
1.39203e-230
1.14272e-228
9.32249e-227
7.55793e-225
6.08884e-223
4.87423e-221
3.87703e-219
3.06403e-217
2.40585e-215
1.87674e-213
1.45438e-211
1.11962e-209
8.56168e-208
6.50314e-206
4.90614e-204
3.6761e-202
2.73554e-200
2.02154e-198
1.48349e-196
1.08099e-194
7.82125e-193
5.61847e-191
4.00704e-189
2.83706e-187
1.99401e-185
1.39115e-183
9.63342e-182
6.62098e-180
4.51617e-178
3.05702e-176
2.05342e-174
1.36861e-172
9.05054e-171
5.93792e-169
3.8648e-167
2.49531e-165
1.59806e-163
1.01509e-161
6.39473e-160
3.995e-158
2.47488e-156
1.5202e-154
9.25807e-153
5.58959e-151
3.34536e-149
1.9846e-147
1.1669e-145
6.79963e-144
3.92637e-142
2.24653e-140
1.27352e-138
7.15212e-137
3.97883e-135
2.19243e-133
1.19647e-131
6.46611e-130
3.46019e-128
1.83328e-126
9.61571e-125
4.99241e-123
2.56547e-121
1.30468e-119
6.56544e-118
3.26889e-116
1.61011e-114
7.84476e-113
3.78019e-111
1.80136e-109
8.48758e-108
3.95369e-106
1.82051e-104
8.2851e-103
3.72604e-101
1.65569e-99
7.26817e-98
3.15149e-96
1.34952e-94
5.70615e-93
2.38195e-91
9.8146e-90
3.99101e-88
1.60133e-86
6.33851e-85
2.47464e-83
9.52732e-82
3.61635e-80
1.35307e-78
4.98907e-77
1.81248e-75
6.48604e-74
2.28576e-72
7.93087e-71
2.70854e-69
9.10248e-68
3.00936e-66
9.78487e-65
3.12805e-63
9.82877e-62
3.03454e-60
9.20265e-59
2.74039e-57
8.0101e-56
2.29737e-54
6.46286e-53
1.78258e-51
4.81865e-50
1.27605e-48
3.30887e-47
8.39773e-46
2.08498e-44
5.06147e-43
1.20076e-41
2.78227e-40
6.29289e-39
1.38849e-37
2.98674e-36
6.2592e-35
1.27701e-33
2.53454e-32
4.88973e-31
9.16189e-30
1.66575e-28
2.93594e-27
5.0114e-26
8.27514e-25
1.32038e-23
2.03325e-22
3.01773e-21
4.31072e-20
5.91744e-19
7.79316e-18
9.82897e-17
1.18487e-15
1.36229e-14
1.49038e-13
1.54749e-12
1.52067e-11
1.40975e-10
1.22862e-09
1.00265e-08
7.62763e-08
5.38189e-07
3.50153e-06
2.08661e-05
0.000113005
0.000551129
0.00239455
0.00915088
0.0302984
0.0854091
0.201095
0.38854
0.61146
0.798905
0.914591
0.969702
0.990849
0.997605
0.999449
0.999887
0.999979
0.999996
0.999999
1
1
1
1
1
1
1
1
1
1
1
1
1
1
1
1
1
1
1
1
1
1
1
1
1
1
1
1
1
1
1
1
1
1
1
1
1
1
1
1
1
1
1
1
1
1
1
1
1
1
1
1
1
1
1
1
1
1
1
1
1
1
1
1
1
1
1
1
1
1
1
1
1
1
1
1
1
1
0.999999
0.999996
0.999979
0.999887
0.999449
0.997605
0.990849
0.969702
0.914591
0.798905
0.61146
0.38854
0.201095
0.0854091
0.0302984
0.00915088
0.00239455
0.000551129
0.000113005
2.08661e-05
3.50153e-06
5.38189e-07
7.62763e-08
1.00265e-08
1.22862e-09
1.40975e-10
1.52067e-11
1.54749e-12
1.49038e-13
1.36229e-14
1.18487e-15
9.82897e-17
7.79316e-18
5.91744e-19
4.31072e-20
3.01773e-21
2.03325e-22
1.32038e-23
8.27514e-25
5.0114e-26
2.93594e-27
1.66575e-28
9.16189e-30
4.88973e-31
2.53454e-32
1.27701e-33
6.2592e-35
2.98674e-36
1.38849e-37
6.29289e-39
2.78227e-40
1.20076e-41
5.06147e-43
2.08498e-44
8.39773e-46
3.30887e-47
1.27605e-48
4.81865e-50
1.78258e-51
6.46286e-53
2.29737e-54
8.0101e-56
2.74039e-57
9.20265e-59
3.03454e-60
9.82877e-62
3.12805e-63
9.78487e-65
3.00936e-66
9.10248e-68
2.70854e-69
7.93087e-71
2.28576e-72
6.48604e-74
1.81248e-75
4.98907e-77
1.35307e-78
3.61635e-80
9.52732e-82
2.47464e-83
6.33851e-85
1.60133e-86
3.99101e-88
9.8146e-90
2.38195e-91
5.70615e-93
1.34952e-94
3.15149e-96
7.26817e-98
1.65569e-99
3.72604e-101
8.2851e-103
1.82051e-104
3.95369e-106
8.48758e-108
1.80136e-109
3.78019e-111
7.84476e-113
1.61011e-114
3.26889e-116
6.56544e-118
1.30468e-119
2.56547e-121
4.99241e-123
9.61571e-125
1.83328e-126
3.46019e-128
6.46611e-130
1.19647e-131
2.19243e-133
3.97883e-135
7.15212e-137
1.27352e-138
2.24653e-140
3.92637e-142
6.79963e-144
1.1669e-145
1.9846e-147
3.34536e-149
5.58959e-151
9.25807e-153
1.5202e-154
2.47488e-156
3.995e-158
6.39473e-160
1.01509e-161
1.59806e-163
2.49531e-165
3.8648e-167
5.93792e-169
9.05054e-171
1.36861e-172
2.05342e-174
3.05702e-176
4.51617e-178
6.62098e-180
9.63342e-182
1.39115e-183
1.99401e-185
2.83706e-187
4.00704e-189
5.61847e-191
7.82125e-193
1.08099e-194
1.48349e-196
2.02154e-198
2.73554e-200
3.6761e-202
4.90614e-204
6.50314e-206
8.56168e-208
1.11962e-209
1.45438e-211
1.87674e-213
2.40585e-215
3.06403e-217
3.87703e-219
4.87423e-221
6.08884e-223
7.55793e-225
9.32249e-227
1.14272e-228
1.39203e-230
1.68528e-232
2.02782e-234
2.42518e-236
2.88289e-238
3.40646e-240
4.00115e-242
4.67188e-244
5.42299e-246
6.25814e-248
7.18003e-250
8.19029e-252
9.28923e-254
1.04757e-255
1.1747e-257
1.30987e-259
1.45244e-261
1.60161e-263
1.75636e-265
1.91553e-267
2.07776e-269
2.24154e-271
2.40524e-273
2.5671e-275
2.72532e-277
2.87803e-279
3.02335e-281
3.15945e-283
3.28457e-285
3.39705e-287
3.49538e-289
3.57825e-291
3.64454e-293
3.69338e-295
3.72413e-297
3.73646e-299
3.73029e-301
3.7058e-303
3.66347e-305
3.604e-307
3.52835e-309
3.43767e-311
3.3333e-313
3.21672e-315
3.08952e-317
2.95283e-319
2.76183e-321
0
0
0
0
0
0
0
0
0
0
0
0
0
0
0
0
0
0
0
0
0
0
0
0
0
0
0
0
0
0
0
0
0
0
0
0
0
0
0
0
0
0
0
0
0
0
0
0
0
0
0
0
0
0
0
0
0
0
0
0
0
0
0
0
0
0
0
0
0
0
0
0
0
0
0
0
0
0
0
0
0
0
0
0
0
0
0
0
0
0
0
0
0
0
0
0
0
0
0
0
0
0
0
0
0
0
0
0
0
0
0
0
0
0
0
0
0
0
0
0
0
0
0
0
0
0
0
0
0
0
0
0
0
0
0
0
0
0
0
0
0
0
0
0
0
0
0
0
0
0
0
0
0
0
0
0
0
0
0
0
0
0
0
0
0
0
0
0
0
0
0
0
0
0
0
0
0
0
0
0
0
0
0
0
0
0
0
0
0
0
0
0
0
0
0
0
0
0
0
0
0
0
0
0
0
0
0
0
0
0
0
0
0
0
0
0
0
0
0
0
0
0
0
0
0
0
0
0
0
0
0
0
0
0
0
0
0
0
0
0
0
0
0
0
0
0
0
0
0
0
0
0
)
;

boundaryField
{
    sides
    {
        type            zeroGradient;
    }
    empty
    {
        type            empty;
    }
}


// ************************************************************************* //
