/*--------------------------------*- C++ -*----------------------------------*\
| =========                 |                                                 |
| \\      /  F ield         | OpenFOAM: The Open Source CFD Toolbox           |
|  \\    /   O peration     | Version:  2312                                  |
|   \\  /    A nd           | Website:  www.openfoam.com                      |
|    \\/     M anipulation  |                                                 |
\*---------------------------------------------------------------------------*/
FoamFile
{
    version     2.0;
    format      ascii;
    arch        "LSB;label=32;scalar=64";
    class       volScalarField;
    location    "1.6";
    object      T;
}
// * * * * * * * * * * * * * * * * * * * * * * * * * * * * * * * * * * * * * //

dimensions      [0 0 0 1 0 0 0];

internalField   nonuniform List<scalar> 
1000
(
1.59382e-161
4.94943e-161
1.89967e-160
7.3967e-160
2.87852e-159
1.11853e-158
4.33953e-158
1.68094e-157
6.50087e-157
2.51016e-156
9.67697e-156
3.72464e-155
1.43131e-154
5.49145e-154
2.1035e-153
8.04447e-153
3.0715e-152
1.17085e-151
4.45602e-151
1.69311e-150
6.42269e-150
2.43242e-149
9.19701e-149
3.4717e-148
1.30835e-147
4.92252e-147
1.84898e-146
6.93359e-146
2.59574e-145
9.70155e-145
3.61989e-144
1.34841e-143
5.01442e-143
1.86161e-142
6.89958e-142
2.55284e-141
9.42948e-141
3.47708e-140
1.27997e-139
4.70378e-139
1.72563e-138
6.31984e-138
2.31055e-137
8.43291e-137
3.07247e-136
1.1175e-135
4.05742e-135
1.47061e-134
5.32093e-134
1.92184e-133
6.92924e-133
2.49396e-132
8.96042e-132
3.21366e-131
1.15054e-130
4.1118e-130
1.46686e-129
5.22361e-129
1.85684e-128
6.58872e-128
2.3337e-127
8.25101e-127
2.91195e-126
1.02583e-125
3.60723e-125
1.26615e-124
4.43609e-124
1.5514e-123
5.41561e-123
1.88701e-122
6.56293e-122
2.27835e-121
7.89471e-121
2.73052e-120
9.4264e-120
3.24814e-119
1.11715e-118
3.83504e-118
1.31405e-117
4.49402e-117
1.53404e-116
5.22653e-116
1.77731e-115
6.03235e-115
2.04352e-114
6.90938e-114
2.33166e-113
7.85331e-113
2.63999e-112
8.85748e-112
2.96603e-111
9.91276e-111
3.30648e-110
1.10075e-109
3.65727e-109
1.21275e-108
4.01356e-108
1.32565e-107
4.36984e-107
1.43761e-106
4.72007e-106
1.54664e-105
5.05776e-105
1.65065e-104
5.37623e-104
1.74752e-103
5.66875e-103
1.83514e-102
5.92882e-102
1.91153e-101
6.15039e-101
1.97485e-100
6.32806e-100
2.02354e-99
6.45734e-99
2.05634e-98
6.53479e-98
2.07235e-97
6.55822e-97
2.07108e-96
6.52673e-96
2.05248e-95
6.44084e-95
2.01691e-94
6.30239e-94
1.96517e-93
6.11456e-93
1.89845e-92
5.88167e-92
1.8183e-91
5.60908e-91
1.72654e-90
5.30295e-90
1.62522e-89
4.97002e-89
1.51653e-88
4.61734e-88
1.40273e-87
4.25205e-87
1.28606e-86
3.88111e-86
1.16865e-85
3.5111e-85
1.05252e-84
3.14802e-84
9.39441e-84
2.79717e-83
8.30971e-83
2.46301e-82
7.28376e-82
2.14909e-81
6.3264e-81
1.85807e-80
5.44461e-80
1.59172e-79
4.64261e-79
1.35098e-78
3.92213e-78
1.13601e-77
3.28263e-77
9.46332e-77
2.7217e-76
7.80929e-76
2.23539e-75
6.38355e-75
1.8186e-74
5.16859e-74
1.46544e-73
4.14493e-73
1.16956e-72
3.29211e-72
9.24431e-72
2.58952e-71
7.23608e-71
2.01709e-70
5.60898e-70
1.55587e-69
4.30517e-69
1.18832e-68
3.27189e-68
8.98634e-68
2.46197e-67
6.72816e-67
1.83409e-66
4.98712e-66
1.35264e-65
3.65945e-65
9.87521e-65
2.6581e-64
7.1365e-64
1.91112e-63
5.10474e-63
1.36001e-62
3.61397e-62
9.57864e-62
2.53217e-61
6.67652e-61
1.75579e-60
4.60526e-60
1.20474e-59
3.14332e-59
8.17963e-59
2.12288e-58
5.49493e-58
1.41853e-57
3.65219e-57
9.37782e-57
2.40149e-56
6.13318e-56
1.56212e-55
3.96792e-55
1.00514e-54
2.53925e-54
6.39723e-54
1.60725e-53
4.02698e-53
1.00617e-52
2.50705e-52
6.22935e-52
1.54351e-51
3.81385e-51
9.39715e-51
2.30891e-50
5.65705e-50
1.38211e-49
3.36715e-49
8.17982e-49
1.98145e-48
4.78607e-48
1.15272e-47
2.76834e-47
6.62912e-47
1.58283e-46
3.76831e-46
8.94525e-46
2.11723e-45
4.9965e-45
1.17567e-44
2.75819e-44
6.4517e-44
1.50464e-43
3.49864e-43
8.11084e-43
1.8747e-42
4.32005e-42
9.92516e-42
2.27338e-41
5.19145e-41
1.18191e-40
2.68257e-40
6.07003e-40
1.36929e-39
3.07937e-39
6.90379e-39
1.543e-38
3.43793e-38
7.63611e-38
1.69079e-37
3.73203e-37
8.21173e-37
1.80117e-36
3.93821e-36
8.58352e-36
1.86487e-35
4.03874e-35
8.71872e-35
1.87614e-34
4.02417e-34
8.60371e-34
1.83353e-33
3.89474e-33
8.24617e-33
1.74023e-32
3.66047e-32
7.6743e-32
1.60364e-31
3.33995e-31
6.93317e-31
1.43442e-30
2.95783e-30
6.07878e-30
1.24509e-29
2.54169e-29
5.17103e-29
1.04848e-28
2.11871e-28
4.26678e-28
8.56338e-28
1.71278e-27
3.41403e-27
6.78165e-27
1.34246e-26
2.64828e-26
5.20613e-26
1.01989e-25
1.991e-25
3.87317e-25
7.5082e-25
1.45035e-24
2.79173e-24
5.3547e-24
1.02341e-23
1.94903e-23
3.69856e-23
6.99342e-23
1.3176e-22
2.4735e-22
4.62667e-22
8.62285e-22
1.60123e-21
2.9626e-21
5.46139e-21
1.00309e-20
1.83562e-20
3.34674e-20
6.07934e-20
1.10022e-19
1.98377e-19
3.56355e-19
6.37752e-19
1.13709e-18
2.01978e-18
3.5742e-18
6.30105e-18
1.10663e-17
1.93618e-17
3.37469e-17
5.85956e-17
1.01353e-16
1.74639e-16
2.99762e-16
5.12551e-16
8.73013e-16
1.48123e-15
2.50343e-15
4.21464e-15
7.06788e-15
1.18065e-14
1.96448e-14
3.25588e-14
5.37501e-14
8.83841e-14
1.44761e-13
2.36159e-13
3.83734e-13
6.2105e-13
1.00112e-12
1.60735e-12
2.57034e-12
4.09379e-12
6.49397e-12
1.02599e-11
1.61441e-11
2.53004e-11
3.9489e-11
6.13841e-11
9.50306e-11
1.4652e-10
2.24983e-10
3.4405e-10
5.23972e-10
7.94703e-10
1.20035e-09
1.80559e-09
2.70476e-09
4.03495e-09
5.99434e-09
8.86823e-09
1.30654e-08
1.91687e-08
2.80056e-08
4.07455e-08
5.90325e-08
8.51682e-08
1.22359e-07
1.75051e-07
2.4938e-07
3.53771e-07
4.99742e-07
7.02959e-07
9.84628e-07
1.37332e-06
1.90732e-06
2.63772e-06
3.63232e-06
4.98069e-06
6.80051e-06
9.24569e-06
1.25165e-05
1.68721e-05
2.26463e-05
3.02668e-05
4.02788e-05
5.33735e-05
7.04229e-05
9.25212e-05
0.000121034
0.000157656
0.000204481
0.000264078
0.000339587
0.000434819
0.000554379
0.000703793
0.000889663
0.00111982
0.00140352
0.00175159
0.00217669
0.00269346
0.00331877
0.00407193
0.00497488
0.0060524
0.00733227
0.00884543
0.0106261
0.0127118
0.0151434
0.0179652
0.0212243
0.024971
0.0292582
0.0341407
0.0396754
0.0459198
0.0529319
0.0607692
0.0694876
0.0791405
0.089778
0.101445
0.114182
0.128019
0.142983
0.159088
0.17634
0.194733
0.214249
0.234859
0.256523
0.279185
0.30278
0.327231
0.352447
0.378331
0.404774
0.431659
0.458866
0.486267
0.513733
0.541134
0.568341
0.595226
0.621669
0.647553
0.672769
0.69722
0.720815
0.743477
0.765141
0.785751
0.805267
0.82366
0.840912
0.857017
0.871981
0.885818
0.898555
0.910222
0.920859
0.930512
0.939231
0.947068
0.95408
0.960324
0.965859
0.970741
0.975028
0.978775
0.982034
0.984855
0.987286
0.989371
0.991151
0.992663
0.993941
0.995016
0.995916
0.996664
0.997284
0.997793
0.998208
0.998543
0.99881
0.999018
0.999175
0.999288
0.999361
0.999396
0.999396
0.999361
0.999288
0.999175
0.999018
0.99881
0.998543
0.998208
0.997793
0.997284
0.996664
0.995916
0.995016
0.993941
0.992663
0.991151
0.989371
0.987286
0.984855
0.982034
0.978775
0.975028
0.970741
0.965859
0.960324
0.95408
0.947068
0.939231
0.930512
0.920859
0.910222
0.898555
0.885818
0.871981
0.857017
0.840912
0.82366
0.805267
0.785751
0.765141
0.743477
0.720815
0.69722
0.672769
0.647553
0.621669
0.595226
0.568341
0.541134
0.513733
0.486267
0.458866
0.431659
0.404774
0.378331
0.352447
0.327231
0.30278
0.279185
0.256523
0.234859
0.214249
0.194733
0.17634
0.159088
0.142983
0.128019
0.114182
0.101445
0.089778
0.0791405
0.0694876
0.0607692
0.0529319
0.0459198
0.0396754
0.0341407
0.0292582
0.024971
0.0212243
0.0179652
0.0151434
0.0127118
0.0106261
0.00884543
0.00733227
0.0060524
0.00497488
0.00407193
0.00331877
0.00269346
0.00217669
0.00175159
0.00140352
0.00111982
0.000889663
0.000703793
0.000554379
0.000434819
0.000339587
0.000264078
0.000204481
0.000157656
0.000121034
9.25212e-05
7.04229e-05
5.33735e-05
4.02788e-05
3.02668e-05
2.26463e-05
1.68721e-05
1.25165e-05
9.24569e-06
6.80051e-06
4.98069e-06
3.63232e-06
2.63772e-06
1.90732e-06
1.37332e-06
9.84628e-07
7.02959e-07
4.99742e-07
3.53771e-07
2.4938e-07
1.75051e-07
1.22359e-07
8.51682e-08
5.90325e-08
4.07455e-08
2.80056e-08
1.91687e-08
1.30654e-08
8.86823e-09
5.99434e-09
4.03495e-09
2.70476e-09
1.80559e-09
1.20035e-09
7.94703e-10
5.23972e-10
3.4405e-10
2.24983e-10
1.4652e-10
9.50306e-11
6.13841e-11
3.9489e-11
2.53004e-11
1.61441e-11
1.02599e-11
6.49397e-12
4.09379e-12
2.57034e-12
1.60735e-12
1.00112e-12
6.2105e-13
3.83734e-13
2.36159e-13
1.44761e-13
8.83841e-14
5.37501e-14
3.25588e-14
1.96448e-14
1.18065e-14
7.06788e-15
4.21464e-15
2.50343e-15
1.48123e-15
8.73013e-16
5.12551e-16
2.99762e-16
1.74639e-16
1.01353e-16
5.85956e-17
3.37469e-17
1.93618e-17
1.10663e-17
6.30105e-18
3.5742e-18
2.01978e-18
1.13709e-18
6.37752e-19
3.56355e-19
1.98377e-19
1.10022e-19
6.07934e-20
3.34674e-20
1.83562e-20
1.00309e-20
5.46139e-21
2.9626e-21
1.60123e-21
8.62285e-22
4.62667e-22
2.4735e-22
1.3176e-22
6.99342e-23
3.69856e-23
1.94903e-23
1.02341e-23
5.3547e-24
2.79173e-24
1.45035e-24
7.5082e-25
3.87317e-25
1.991e-25
1.01989e-25
5.20613e-26
2.64828e-26
1.34246e-26
6.78165e-27
3.41403e-27
1.71278e-27
8.56338e-28
4.26678e-28
2.11871e-28
1.04848e-28
5.17103e-29
2.54169e-29
1.24509e-29
6.07878e-30
2.95783e-30
1.43442e-30
6.93317e-31
3.33995e-31
1.60364e-31
7.6743e-32
3.66047e-32
1.74023e-32
8.24617e-33
3.89474e-33
1.83353e-33
8.60371e-34
4.02417e-34
1.87614e-34
8.71872e-35
4.03874e-35
1.86487e-35
8.58352e-36
3.93821e-36
1.80117e-36
8.21173e-37
3.73203e-37
1.69079e-37
7.63611e-38
3.43793e-38
1.543e-38
6.90379e-39
3.07937e-39
1.36929e-39
6.07003e-40
2.68257e-40
1.18191e-40
5.19145e-41
2.27338e-41
9.92516e-42
4.32005e-42
1.8747e-42
8.11084e-43
3.49864e-43
1.50464e-43
6.4517e-44
2.75819e-44
1.17567e-44
4.9965e-45
2.11723e-45
8.94525e-46
3.76831e-46
1.58283e-46
6.62912e-47
2.76834e-47
1.15272e-47
4.78607e-48
1.98145e-48
8.17982e-49
3.36715e-49
1.38211e-49
5.65705e-50
2.30891e-50
9.39715e-51
3.81385e-51
1.54351e-51
6.22935e-52
2.50705e-52
1.00617e-52
4.02698e-53
1.60725e-53
6.39723e-54
2.53925e-54
1.00514e-54
3.96792e-55
1.56212e-55
6.13318e-56
2.40149e-56
9.37782e-57
3.65219e-57
1.41853e-57
5.49493e-58
2.12288e-58
8.17963e-59
3.14332e-59
1.20474e-59
4.60526e-60
1.75579e-60
6.67652e-61
2.53217e-61
9.57864e-62
3.61397e-62
1.36001e-62
5.10474e-63
1.91112e-63
7.1365e-64
2.6581e-64
9.87521e-65
3.65945e-65
1.35264e-65
4.98712e-66
1.83409e-66
6.72816e-67
2.46197e-67
8.98634e-68
3.27189e-68
1.18832e-68
4.30517e-69
1.55587e-69
5.60898e-70
2.01709e-70
7.23608e-71
2.58952e-71
9.24431e-72
3.29211e-72
1.16956e-72
4.14493e-73
1.46544e-73
5.16859e-74
1.8186e-74
6.38355e-75
2.23539e-75
7.80929e-76
2.7217e-76
9.46332e-77
3.28263e-77
1.13601e-77
3.92213e-78
1.35098e-78
4.64261e-79
1.59172e-79
5.44461e-80
1.85807e-80
6.3264e-81
2.14909e-81
7.28376e-82
2.46301e-82
8.30971e-83
2.79717e-83
9.39441e-84
3.14802e-84
1.05252e-84
3.5111e-85
1.16865e-85
3.88111e-86
1.28606e-86
4.25205e-87
1.40273e-87
4.61734e-88
1.51653e-88
4.97002e-89
1.62522e-89
5.30295e-90
1.72654e-90
5.60908e-91
1.8183e-91
5.88167e-92
1.89845e-92
6.11456e-93
1.96517e-93
6.30239e-94
2.01691e-94
6.44084e-95
2.05248e-95
6.52673e-96
2.07108e-96
6.55822e-97
2.07235e-97
6.53479e-98
2.05634e-98
6.45734e-99
2.02354e-99
6.32806e-100
1.97485e-100
6.15039e-101
1.91153e-101
5.92882e-102
1.83514e-102
5.66875e-103
1.74752e-103
5.37623e-104
1.65065e-104
5.05776e-105
1.54664e-105
4.72007e-106
1.43761e-106
4.36984e-107
1.32565e-107
4.01356e-108
1.21275e-108
3.65727e-109
1.10075e-109
3.30648e-110
9.91276e-111
2.96603e-111
8.85748e-112
2.63999e-112
7.85331e-113
2.33166e-113
6.90938e-114
2.04352e-114
6.03235e-115
1.77731e-115
5.22653e-116
1.53404e-116
4.49402e-117
1.31405e-117
3.83504e-118
1.11715e-118
3.24814e-119
9.4264e-120
2.73052e-120
7.89471e-121
2.27835e-121
6.56293e-122
1.88701e-122
5.41561e-123
1.5514e-123
4.43609e-124
1.26615e-124
3.60723e-125
1.02583e-125
2.91195e-126
8.25101e-127
2.3337e-127
6.58872e-128
1.85684e-128
5.22361e-129
1.46686e-129
4.1118e-130
1.15054e-130
3.21366e-131
8.96042e-132
2.49396e-132
6.92924e-133
1.92184e-133
5.32093e-134
1.47061e-134
4.05742e-135
1.1175e-135
3.07247e-136
8.43291e-137
2.31055e-137
6.31984e-138
1.72563e-138
4.70378e-139
1.27997e-139
3.47708e-140
9.42948e-141
2.55284e-141
6.89958e-142
1.86161e-142
5.01442e-143
1.34841e-143
3.61989e-144
9.70155e-145
2.59574e-145
6.93359e-146
1.84898e-146
4.92252e-147
1.30835e-147
3.4717e-148
9.19701e-149
2.43242e-149
6.42269e-150
1.69311e-150
4.45602e-151
1.17085e-151
3.0715e-152
8.04447e-153
2.1035e-153
5.49145e-154
1.43131e-154
3.72464e-155
9.67697e-156
2.51016e-156
6.50087e-157
1.68094e-157
4.33953e-158
1.11853e-158
2.87852e-159
7.3967e-160
1.89967e-160
4.94943e-161
1.59382e-161
)
;

boundaryField
{
    sides
    {
        type            zeroGradient;
    }
    empty
    {
        type            empty;
    }
}


// ************************************************************************* //
