/*--------------------------------*- C++ -*----------------------------------*\
| =========                 |                                                 |
| \\      /  F ield         | OpenFOAM: The Open Source CFD Toolbox           |
|  \\    /   O peration     | Version:  2312                                  |
|   \\  /    A nd           | Website:  www.openfoam.com                      |
|    \\/     M anipulation  |                                                 |
\*---------------------------------------------------------------------------*/
FoamFile
{
    version     2.0;
    format      ascii;
    arch        "LSB;label=32;scalar=64";
    class       volScalarField;
    location    "1";
    object      T;
}
// * * * * * * * * * * * * * * * * * * * * * * * * * * * * * * * * * * * * * //

dimensions      [0 0 0 1 0 0 0];

internalField   nonuniform List<scalar> 
1000
(
0
0
0
0
0
0
0
0
0
0
0
0
0
0
0
0
0
0
0
0
0
0
0
0
0
0
0
0
0
0
0
0
0
0
0
0
0
0
0
0
0
0
0
0
0
0
0
0
0
0
0
0
0
0
0
0
0
0
0
0
0
0
0
0
0
0
0
0
0
0
0
0
0
0
0
0
0
0
0
0
0
0
0
0
0
0
0
0
0
0
0
0
0
0
0
0
0
0
0
0
0
0
0
0
0
0
0
0
0
0
0
0
0
0
0
0
0
0
0
0
0
0
0
0
0
0
0
0
0
0
0
0
0
0
0
0
0
0
0
0
0
0
0
0
0
0
0
0
0
0
0
0
0
0
0
0
0
0
0
0
0
0
0
0
0
0
0
0
0
0
0
0
0
0
0
0
0
0
0
0
0
0
0
0
0
0
0
0
0
0
0
0
0
0
0
0
0
0
0
0
0
0
0
0
0
0
0
0
0
0
0
0
0
0
0
0
0
0
0
0
0
0
0
0
0
0
0
0
0
0
0
0
0
0
0
0
0
0
0
0
0
0
0
0
0
0
0
0
0
0
0
0
0
0
0
0
0
0
0
0
0
0
0
0
0
0
0
0
0
0
0
0
0
0
0
0
0
0
0
0
0
0
0
0
0
0
0
0
0
0
0
0
0
0
0
0
0
0
0
0
0
0
0
0
0
0
0
0
0
0
0
0
0
0
0
0
0
0
0
0
0
0
0
0
0
0
0
0
0
0
0
0
0
0
0
0
0
0
0
0
0
0
0
0
0
0
0
0
0
0
0
0
0
0
0
0
0
0
0
0
0
0
0
0
0
0
0
0
0
0
0
0
0
0
0
0
0
0
0
0
0
0
0
0
0
0
0
0
0
0
0
0
0
0
0
0
0
0
0
0
0
0
0
0
1.38253e-59
-9.28084e-44
5.57668e-36
-3.30706e-32
1.06411e-30
3.23467e-29
3.78336e-28
2.76005e-27
1.44981e-26
5.37199e-26
8.03171e-26
-6.49895e-25
-6.3623e-24
-3.01964e-23
-9.03641e-23
-1.82324e-22
-4.48932e-22
-2.75945e-21
-1.57762e-20
-5.67414e-20
-1.03206e-19
1.1186e-19
1.38235e-18
4.35799e-18
4.95983e-18
-1.82991e-17
-1.19554e-16
-2.55727e-16
4.12628e-16
2.01036e-15
-1.43702e-15
-7.26795e-15
7.44314e-15
1.70185e-14
-3.022e-14
-2.4502e-14
8.77189e-14
1.30553e-14
-2.2454e-13
8.59651e-14
5.07805e-13
-4.54658e-13
-1.01539e-12
1.50661e-12
1.87344e-12
-4.03918e-12
-3.41922e-12
1.01386e-11
6.27258e-12
-2.4976e-11
-1.10168e-11
5.77351e-11
2.24455e-11
-1.3167e-10
-5.84588e-11
2.9927e-10
1.61936e-10
-6.49729e-10
-4.84684e-10
1.37265e-09
1.42627e-09
-2.58204e-09
-4.04386e-09
4.11833e-09
1.0539e-08
-4.00285e-09
-2.47391e-08
-4.7774e-09
5.08344e-08
4.0874e-08
-8.31372e-08
-1.41951e-07
7.16391e-08
3.49781e-07
1.32203e-07
-6.30355e-07
-8.07911e-07
5.29182e-07
2.17903e-06
1.1184e-06
-3.35907e-06
-5.74542e-06
2.38395e-07
1.21861e-05
1.3299e-05
-7.01196e-06
-3.60829e-05
-3.25236e-05
2.60314e-05
0.00010131
9.15007e-05
-6.06955e-05
-0.000275141
-0.000287487
4.50996e-05
0.000643986
0.000954471
0.000442677
-0.00103504
-0.00271776
-0.0028665
-0.000556089
0.0043764
0.00966633
0.0106911
0.00488227
-0.00947551
-0.0295084
-0.0468685
-0.048522
-0.02875
0.0210597
0.103519
0.214758
0.345315
0.482597
0.613946
0.729273
0.822591
0.892244
0.940098
0.970172
0.987248
0.99579
0.999306
1
1
1
1
1
1
1
1
1
1
1
1
1
1
1
1
1
1
1
1
1
1
1
1
1
1
1
1
1
1
1
1
1
1
1
1
1
1
1
1
1
1
1
1
1
1
1
1
1
1
1
1
0.999999
0.999998
0.999999
1
1.00001
1
0.999988
0.999987
1.00001
1.00004
1.00003
0.999973
0.999898
0.999908
1.00006
1.00028
1.00029
0.999957
0.999357
0.999046
0.999556
1.00103
1.00271
1.00287
1.00055
0.995611
0.990336
0.989325
0.995139
1.00949
1.02952
1.04686
1.04848
1.02867
0.978814
0.896317
0.785057
0.6545
0.517236
0.385917
0.270624
0.17734
0.107713
0.0598796
0.0298181
0.0127485
0.0042094
0.000694356
1.05505e-11
1.00961e-12
4.34175e-15
2.50304e-16
2.49028e-16
2.448e-16
2.34224e-16
2.1557e-16
1.89773e-16
1.59942e-16
1.29788e-16
1.02225e-16
7.88117e-17
5.9912e-17
4.51535e-17
3.38529e-17
2.52894e-17
1.88317e-17
1.39737e-17
1.03254e-17
7.59182e-18
5.55026e-18
4.03206e-18
2.90909e-18
2.08363e-18
1.48109e-18
1.04459e-18
7.30903e-19
5.07331e-19
3.49334e-19
2.3863e-19
1.61722e-19
1.08746e-19
7.25598e-20
4.8047e-20
3.15767e-20
2.05988e-20
1.33394e-20
8.57611e-21
5.47445e-21
3.46994e-21
2.18407e-21
1.36523e-21
8.47544e-22
5.22594e-22
3.2006e-22
1.94709e-22
1.17664e-22
7.0635e-23
4.21243e-23
2.49571e-23
1.46899e-23
8.59048e-24
4.99116e-24
2.88126e-24
1.65262e-24
9.41844e-25
5.33353e-25
3.00116e-25
1.67808e-25
9.3239e-26
5.14817e-26
2.82481e-26
1.54035e-26
8.34745e-27
4.49578e-27
2.40649e-27
1.28028e-27
6.76982e-28
3.55809e-28
1.85881e-28
9.65261e-29
4.98265e-29
2.55679e-29
1.30426e-29
6.6142e-30
3.33467e-30
1.67149e-30
8.32997e-31
4.12749e-31
2.03352e-31
9.96188e-32
4.85268e-32
2.35062e-32
1.1323e-32
5.42411e-33
2.58405e-33
1.22432e-33
5.76925e-34
2.70391e-34
1.26046e-34
5.84444e-35
2.69555e-35
1.23668e-35
5.64399e-36
2.56242e-36
1.15734e-36
5.20035e-37
2.32477e-37
1.03399e-37
4.5757e-38
2.01471e-38
8.82673e-39
3.84795e-39
1.66923e-39
7.20564e-40
3.09537e-40
1.32327e-40
5.62979e-41
2.38374e-41
1.00452e-41
4.21317e-42
1.7588e-42
7.30797e-43
3.02247e-43
1.24429e-43
5.09909e-44
2.0801e-44
8.44708e-45
3.41487e-45
1.37435e-45
5.50666e-46
2.19664e-46
8.72407e-47
3.4497e-47
1.35818e-47
5.32422e-48
2.07821e-48
8.07735e-49
3.12611e-49
1.20478e-49
4.62368e-50
1.76708e-50
6.72548e-51
2.54917e-51
9.62263e-52
3.61757e-52
1.3545e-52
5.05115e-53
1.87612e-53
6.94062e-54
2.55749e-54
9.38679e-55
3.43176e-55
1.24975e-55
4.53362e-56
1.63829e-56
5.89755e-57
2.11492e-57
7.5556e-58
2.68908e-58
9.53473e-59
3.36814e-59
1.18539e-59
4.15646e-60
1.45208e-60
5.05442e-61
1.75296e-61
6.05758e-62
2.08576e-62
7.15607e-63
2.44645e-63
8.33413e-64
2.82913e-64
9.5702e-65
3.22607e-65
1.08372e-65
3.62795e-66
1.21035e-66
4.02419e-67
1.33341e-67
4.40333e-68
1.44922e-68
4.75369e-69
1.5541e-69
5.06389e-70
1.64458e-70
5.32351e-71
1.71759e-71
5.52367e-72
1.77063e-72
5.65754e-73
1.80191e-73
5.72074e-74
1.81047e-74
5.71156e-75
1.79619e-75
5.63101e-76
1.75982e-76
5.48276e-77
1.7029e-77
5.27283e-78
1.62768e-78
5.00921e-79
1.53693e-79
4.70137e-80
1.43381e-80
4.35972e-81
1.3217e-81
3.99501e-82
1.20399e-82
3.61784e-83
1.08394e-83
3.23817e-84
9.64568e-85
2.86492e-85
8.48486e-86
2.50573e-86
7.37881e-87
2.16674e-87
6.34457e-88
1.85258e-88
5.39429e-89
1.56633e-89
4.53551e-90
1.30969e-90
3.77153e-91
1.08312e-91
3.10207e-92
8.86026e-93
2.52387e-93
7.16998e-94
2.03144e-94
5.74026e-95
1.61772e-95
4.54702e-96
1.27469e-96
3.56402e-97
9.93898e-98
2.76447e-98
7.6693e-99
2.12216e-99
5.85711e-100
1.61241e-100
4.42752e-101
1.21267e-101
3.31302e-102
9.02843e-103
2.4542e-103
6.6546e-104
1.79992e-104
4.8563e-105
1.30703e-105
3.50912e-106
9.39824e-107
2.51093e-107
6.69216e-108
1.77929e-108
4.71932e-109
1.24873e-109
3.29623e-110
8.68025e-111
2.28042e-111
5.97683e-112
1.5628e-112
4.07677e-113
1.06099e-113
2.75485e-114
7.13635e-115
1.84438e-115
4.7558e-116
1.22349e-116
3.14041e-117
8.04232e-118
2.05491e-118
5.23868e-119
1.33252e-119
3.38182e-120
8.56363e-121
2.1637e-121
5.45475e-122
1.37212e-122
3.44392e-123
8.62504e-124
2.15536e-124
5.37445e-125
1.33723e-125
3.32e-126
8.22497e-127
2.03329e-127
5.01575e-128
1.23466e-128
3.03275e-129
7.43373e-130
1.81828e-130
4.43818e-131
1.08103e-131
2.62765e-132
6.37373e-133
1.54284e-133
3.72693e-134
8.98441e-135
2.16141e-135
5.18919e-136
1.2433e-136
2.97287e-137
7.09407e-138
1.68944e-138
4.01529e-139
9.52408e-140
2.25457e-140
5.32651e-141
1.25592e-141
2.95546e-142
6.94121e-143
1.62702e-143
3.80632e-144
8.88734e-145
2.07108e-145
4.81706e-146
1.11823e-146
2.59088e-147
5.99145e-148
1.3829e-148
3.18582e-149
7.3254e-150
1.68121e-150
3.85119e-151
8.8055e-152
2.00956e-152
4.57763e-153
1.04081e-153
2.36212e-154
5.35095e-155
1.20993e-155
2.73083e-156
6.15228e-157
1.38352e-157
3.10563e-158
6.95869e-159
1.5564e-159
3.47485e-160
7.74414e-161
1.7228e-161
3.8258e-162
8.48088e-163
1.87668e-163
4.14549e-164
9.14107e-165
2.01214e-165
4.42141e-166
9.69858e-167
2.12374e-167
4.64242e-168
1.01307e-168
2.20692e-169
4.79943e-170
1.04196e-170
2.25826e-171
4.88606e-172
1.05538e-172
2.27576e-173
4.89908e-174
1.05287e-174
2.25896e-175
4.83858e-176
1.03468e-176
2.2089e-177
4.70792e-178
1.00177e-178
2.1281e-179
4.51344e-180
9.55683e-181
2.02029e-181
4.26394e-182
8.98474e-183
1.89017e-183
3.97006e-184
8.32527e-185
1.74304e-185
3.64353e-186
)
;

boundaryField
{
    sides
    {
        type            zeroGradient;
    }
    empty
    {
        type            empty;
    }
}


// ************************************************************************* //
