/*--------------------------------*- C++ -*----------------------------------*\
| =========                 |                                                 |
| \\      /  F ield         | OpenFOAM: The Open Source CFD Toolbox           |
|  \\    /   O peration     | Version:  2312                                  |
|   \\  /    A nd           | Website:  www.openfoam.com                      |
|    \\/     M anipulation  |                                                 |
\*---------------------------------------------------------------------------*/
FoamFile
{
    version     2.0;
    format      ascii;
    arch        "LSB;label=32;scalar=64";
    class       volScalarField;
    location    "4.3";
    object      T;
}
// * * * * * * * * * * * * * * * * * * * * * * * * * * * * * * * * * * * * * //

dimensions      [0 0 0 1 0 0 0];

internalField   nonuniform List<scalar> 
1000
(
0
0
0
0
0
0
0
0
0
0
0
0
0
0
0
0
0
0
0
0
0
0
0
0
0
0
0
0
0
0
0
0
0
0
0
0
0
0
0
0
0
0
0
0
0
0
0
0
0
0
0
0
0
0
0
0
0
0
0
0
0
0
0
0
0
0
0
0
0
0
0
0
0
0
0
0
0
0
0
0
0
0
0
0
0
0
0
0
0
0
0
0
0
0
0
0
0
0
0
0
0
0
0
0
0
0
0
0
0
0
0
0
0
0
0
0
0
0
0
0
0
0
0
0
0
0
0
0
0
0
0
0
0
0
0
0
0
0
0
0
0
0
0
0
0
0
0
0
0
0
0
0
0
0
0
0
0
0
0
0
0
0
0
0
0
0
0
0
0
0
0
0
0
-4.94066e-324
2.96439e-323
-4.94066e-324
2.96439e-323
-4.94066e-324
2.96439e-323
-4.94066e-324
2.96439e-323
-4.94066e-324
2.96439e-323
-4.94066e-324
2.96439e-323
-4.94066e-324
2.96439e-323
-4.94066e-324
2.96439e-323
-4.94066e-324
2.96439e-323
-4.94066e-324
2.96439e-323
-4.94066e-324
2.96439e-323
-4.94066e-324
2.96439e-323
-4.94066e-324
2.96439e-323
-4.94066e-324
2.96439e-323
-4.94066e-324
2.96439e-323
-4.94066e-324
2.96439e-323
-4.94066e-324
2.96439e-323
-4.94066e-324
2.96439e-323
-4.94066e-324
2.96439e-323
-4.94066e-324
2.96439e-323
-4.94066e-324
2.96439e-323
-4.94066e-324
2.96439e-323
-4.94066e-324
2.96439e-323
-4.94066e-324
2.96439e-323
-4.94066e-324
2.96439e-323
-4.94066e-324
2.96439e-323
-4.94066e-324
2.96439e-323
-4.94066e-324
2.96439e-323
-4.94066e-324
2.96439e-323
-4.94066e-324
2.96439e-323
-4.94066e-324
2.96439e-323
-4.94066e-324
2.96439e-323
-4.94066e-324
2.96439e-323
-4.94066e-324
2.96439e-323
-4.94066e-324
2.96439e-323
-4.94066e-324
2.96439e-323
-4.94066e-324
2.96439e-323
-4.94066e-324
2.96439e-323
-4.94066e-324
2.96439e-323
-4.94066e-324
2.96439e-323
-4.94066e-324
2.96439e-323
-4.94066e-324
2.96439e-323
-4.94066e-324
9.88131e-324
2.96439e-323
5.43472e-323
7.41098e-323
9.88131e-323
1.18576e-322
1.43279e-322
1.63042e-322
1.87745e-322
2.12448e-322
2.37152e-322
2.61855e-322
2.86558e-322
3.06321e-322
3.26083e-322
3.45846e-322
3.65609e-322
4.15015e-322
4.00193e-322
3.7549e-322
3.55727e-322
3.35965e-322
3.16202e-322
2.96439e-322
2.76677e-322
2.51973e-322
2.2727e-322
2.02567e-322
1.77864e-322
1.5316e-322
1.33398e-322
1.08694e-322
8.89318e-323
6.42285e-323
4.44659e-323
1.97626e-323
-4.94066e-324
-2.96439e-323
-4.94066e-323
-7.41098e-323
-9.38725e-323
-1.13635e-322
-1.38338e-322
-1.63042e-322
-1.87745e-322
-2.07508e-322
-2.2727e-322
-2.51973e-322
-2.71736e-322
-2.96439e-322
-3.16202e-322
-3.40905e-322
-3.65609e-322
-5.33591e-322
-2.47033e-321
-2.19168e-320
-2.11529e-319
-2.05182e-318
-2.01885e-317
-2.06082e-316
-2.2023e-315
-2.54548e-314
-3.02278e-313
-4.64e-312
-2.49556e-310
-2.43489e-308
-1.46734e-306
-2.04482e-306
6.18134e-305
3.1968e-303
1.2287e-301
3.97048e-300
1.10591e-298
2.69833e-297
5.84091e-296
1.13332e-294
1.98802e-293
3.1754e-292
4.64654e-291
6.26144e-290
7.80491e-289
9.03258e-288
9.73158e-287
9.77437e-286
9.16592e-285
8.11784e-284
7.12706e-283
6.85284e-282
7.87815e-281
1.07001e-279
1.58579e-278
2.42124e-277
3.81626e-276
6.53014e-275
1.2474e-273
2.68766e-272
3.1143e-271
2.7822e-271
-5.40168e-270
-1.29197e-268
-2.42235e-267
-4.13545e-266
-6.52412e-265
-9.54627e-264
-1.29929e-262
-1.64956e-261
-1.95874e-260
-2.18117e-259
-2.28694e-258
-2.2842e-257
-2.24689e-256
-2.3215e-255
-2.69799e-254
-3.59015e-253
-5.26068e-252
-8.06794e-251
-1.26775e-249
-2.06216e-248
-3.60901e-247
-6.96208e-246
-1.32572e-244
-3.38462e-244
8.53849e-244
3.14852e-242
6.34625e-241
1.14937e-239
1.93055e-238
3.01584e-237
4.38729e-236
5.9545e-235
7.55651e-234
8.98818e-233
1.00455e-231
1.05757e-230
1.05161e-229
9.91083e-229
8.91004e-228
7.75959e-227
6.76919e-226
6.24298e-225
6.39638e-224
7.3185e-223
9.11999e-222
1.24822e-220
2.01852e-219
4.07481e-218
1.0017e-216
7.00062e-216
-3.77964e-217
-3.21368e-214
-8.20167e-213
-1.80078e-211
-3.6098e-210
-6.64321e-209
-1.12552e-207
-1.76121e-206
-2.55448e-205
-3.44674e-204
-4.34215e-203
-5.12546e-202
-5.68955e-201
-5.96386e-200
-5.93387e-199
-5.64287e-198
-5.18399e-197
-4.68978e-196
-4.30529e-195
-4.14522e-194
-4.26795e-193
-4.69268e-192
-5.45827e-191
-6.62218e-190
-8.18874e-189
-1.00969e-187
-1.23791e-186
-1.50985e-185
-5.5791e-185
-6.72067e-186
1.15509e-183
1.76076e-182
2.21654e-181
2.58632e-180
3.14778e-179
4.3705e-178
6.56871e-177
9.57481e-176
1.26181e-174
1.44067e-173
1.38862e-172
1.27352e-171
1.62074e-170
3.42587e-169
6.55262e-168
8.9314e-167
8.66576e-166
5.91207e-165
2.95298e-164
1.76482e-163
2.44546e-162
5.65553e-161
3.37791e-160
-8.52353e-161
-1.43112e-158
-3.24951e-158
1.34966e-157
9.34219e-157
-5.49617e-157
-4.08226e-155
-5.4196e-154
-9.48565e-154
1.78405e-153
3.47927e-152
9.5776e-152
2.29787e-152
-8.71387e-151
-6.3418e-150
-3.07289e-149
-1.18262e-148
-4.02061e-148
-1.39935e-147
-5.68956e-147
-2.74034e-146
-1.45081e-145
-7.86015e-145
-4.32873e-144
-2.77851e-143
-2.54062e-142
-3.2349e-141
-4.70783e-140
-7.15709e-139
-8.20509e-138
-6.38491e-137
-3.30015e-136
-1.13104e-135
-3.4434e-135
-1.90947e-134
-2.20526e-133
-3.11295e-132
-1.76463e-131
-1.03535e-131
2.62364e-130
2.22018e-129
1.8709e-129
-2.40425e-128
-4.04006e-127
-1.40375e-126
1.16607e-127
3.23776e-125
3.09348e-124
3.51957e-124
-1.73803e-123
-6.0342e-123
7.21205e-123
2.46999e-121
3.25965e-120
3.67365e-119
1.11969e-118
1.32451e-120
-1.96247e-117
-5.30346e-117
3.65187e-117
1.53581e-115
1.87276e-114
7.88094e-114
4.42237e-114
-8.37641e-113
-1.09806e-111
-4.57178e-111
-2.66096e-111
4.52835e-110
5.70653e-109
1.9491e-108
7.12262e-109
-2.33094e-107
-2.79901e-106
-1.41521e-105
-1.23592e-105
8.17963e-105
1.11989e-103
7.73236e-103
9.40109e-103
-2.23131e-102
-3.94132e-101
-3.68694e-100
-1.2442e-99
-7.12191e-100
1.0015e-98
1.13428e-97
5.95097e-97
5.89287e-97
-2.21301e-96
-3.08891e-95
-2.66457e-94
-1.01626e-93
-8.1071e-94
5.14443e-93
6.06201e-92
4.84938e-91
1.57817e-90
1.08906e-90
-9.012e-90
-9.74935e-89
-7.42406e-88
-2.28505e-87
-1.55757e-87
1.24254e-86
1.30587e-85
9.5925e-85
3.03511e-84
2.27534e-84
-1.38049e-83
-1.46344e-82
-1.06441e-81
-7.07783e-81
-4.55182e-80
-2.87606e-79
-1.7943e-78
-1.10796e-77
-6.76382e-77
-4.0864e-76
-2.44642e-75
-1.3126e-74
-2.51986e-74
-9.55969e-75
1.68951e-73
1.40093e-72
8.82802e-72
5.14681e-71
2.90693e-70
1.6135e-69
8.84432e-69
4.79607e-68
2.57465e-67
1.36861e-66
7.20482e-66
3.75646e-65
1.93985e-64
9.92223e-64
5.02711e-63
2.52297e-62
1.25431e-61
6.17747e-61
3.01401e-60
1.45687e-59
6.97676e-59
3.31021e-58
1.55611e-57
7.24802e-57
3.34508e-56
1.52973e-55
6.93191e-55
3.11269e-54
1.38508e-53
6.1077e-53
2.66906e-52
1.15592e-51
4.96128e-51
2.11042e-50
8.89734e-50
3.71774e-49
1.5397e-48
6.32028e-48
2.57153e-47
1.03707e-46
4.1457e-46
1.64273e-45
6.45237e-45
2.51227e-44
9.69653e-44
3.71e-43
1.40717e-42
5.29104e-42
1.97225e-41
7.28817e-41
2.67001e-40
9.69737e-40
3.49177e-39
1.2465e-38
4.41162e-38
1.548e-37
5.38531e-37
1.85748e-36
6.35209e-36
2.15372e-35
7.24013e-35
2.41319e-34
7.97491e-34
2.61308e-33
8.48939e-33
2.73462e-32
8.7341e-32
2.76592e-31
8.68491e-31
2.70392e-30
8.34695e-30
2.55486e-29
7.75378e-29
2.33327e-28
6.96184e-28
2.05963e-27
6.04169e-27
1.75725e-26
5.0677e-26
1.44908e-25
4.10839e-25
1.15492e-24
3.21904e-24
8.89604e-24
2.43757e-23
6.62227e-23
1.78378e-22
4.76382e-22
1.26138e-21
3.31141e-21
8.61879e-21
2.22404e-20
5.68982e-20
1.44313e-19
3.62879e-19
9.04602e-19
2.23556e-18
5.47702e-18
1.33021e-17
3.20266e-17
7.64371e-17
1.8084e-16
4.24101e-16
9.8588e-16
2.27168e-15
5.18832e-15
1.17451e-14
2.63524e-14
5.86017e-14
1.29156e-13
2.8211e-13
6.10678e-13
1.31003e-12
2.7849e-12
5.86658e-12
1.2246e-11
2.53289e-11
5.19087e-11
1.05402e-10
2.12041e-10
4.22611e-10
8.34433e-10
1.63212e-09
3.16229e-09
6.06904e-09
1.15368e-08
2.17209e-08
4.05015e-08
7.47899e-08
1.36763e-07
2.47639e-07
4.43987e-07
7.88125e-07
1.38504e-06
2.40961e-06
4.14966e-06
7.07343e-06
1.19334e-05
1.99244e-05
3.29195e-05
5.38186e-05
8.70532e-05
0.000139306
0.00022052
0.000345284
0.0005347
0.00081885
0.00123997
0.00185645
0.00274769
0.00401989
0.00581258
0.0083057
0.0117268
0.0163576
0.022539
0.0306738
0.0412244
0.0547056
0.07167
0.0926846
0.118299
0.149003
0.18518
0.227051
0.274623
0.327637
0.385537
0.447444
0.512172
0.578264
0.644058
0.70779
0.767719
0.822255
0.870093
0.910324
0.942504
0.966675
0.98333
0.993373
0.998187
0.999728
0.999983
1
1
1
1
1
1
1
1
1
1
1
1
1
1
1
1
1
1
1
1
1
1
1
1
1
1
1
1
1
1
1
1
1
1
1
1
1
1
1
1
1
1
1
1
1
1
1
1
0.999999
0.999999
0.999998
0.999996
0.999993
0.999988
0.99998
0.999967
0.999946
0.999913
0.999861
0.999779
0.999654
0.999465
0.99918
0.998759
0.998142
0.99725
0.995977
0.994183
0.991688
0.988265
0.983631
0.977447
0.969308
0.958752
0.945265
0.928293
0.907271
0.881648
0.850935
0.814749
0.772868
0.725287
0.672265
0.61436
0.552448
0.487717
0.421627
0.355837
0.292111
0.232191
0.177666
0.12984
0.0896226
0.0574558
0.033297
0.0166523
0.00661737
0.00180931
0.000271304
1.65228e-05
2.94663e-07
1.13853e-09
7.43138e-13
7.35108e-17
6.53722e-21
5.82926e-25
5.16866e-29
4.54742e-33
3.97229e-37
3.45096e-41
2.98753e-45
2.58189e-49
2.23057e-53
1.92814e-57
1.66836e-61
1.4451e-65
1.25281e-69
1.08674e-73
9.4296e-78
8.18251e-82
7.09967e-86
6.15908e-90
5.34214e-94
4.63287e-98
4.01735e-102
3.48343e-106
3.02043e-110
2.61901e-114
2.271e-118
1.96929e-122
1.7077e-126
1.48088e-130
1.28419e-134
1.11363e-138
9.65715e-143
8.37441e-147
7.262e-151
6.29731e-155
5.46075e-159
4.7353e-163
4.10622e-167
3.5607e-171
3.08765e-175
2.67744e-179
2.32173e-183
2.01327e-187
1.74579e-191
1.51385e-195
1.31271e-199
1.1383e-203
9.87058e-208
8.55909e-212
7.42184e-216
6.43568e-220
5.58054e-224
4.83902e-228
4.19602e-232
3.63845e-236
3.15496e-240
2.73572e-244
2.37218e-248
2.05694e-252
1.78359e-256
1.54657e-260
1.34104e-264
1.16282e-268
1.00828e-272
8.7428e-277
7.58087e-281
6.57334e-285
5.6997e-289
4.94216e-293
4.2853e-297
3.71573e-301
3.22185e-305
2.79362e-309
2.42229e-313
2.10032e-317
1.81322e-321
0
0
0
0
0
0
0
0
0
0
0
0
0
0
0
0
0
0
0
0
0
0
0
0
0
0
0
0
0
0
0
0
0
0
0
0
0
0
0
0
0
0
0
0
0
0
0
0
0
0
0
0
0
0
0
)
;

boundaryField
{
    sides
    {
        type            zeroGradient;
    }
    empty
    {
        type            empty;
    }
}


// ************************************************************************* //
