/*--------------------------------*- C++ -*----------------------------------*\
| =========                 |                                                 |
| \\      /  F ield         | OpenFOAM: The Open Source CFD Toolbox           |
|  \\    /   O peration     | Version:  2312                                  |
|   \\  /    A nd           | Website:  www.openfoam.com                      |
|    \\/     M anipulation  |                                                 |
\*---------------------------------------------------------------------------*/
FoamFile
{
    version     2.0;
    format      ascii;
    arch        "LSB;label=32;scalar=64";
    class       volScalarField;
    location    "3.3";
    object      T;
}
// * * * * * * * * * * * * * * * * * * * * * * * * * * * * * * * * * * * * * //

dimensions      [0 0 0 1 0 0 0];

internalField   nonuniform List<scalar> 
1000
(
1.12606e-313
-5.12917e-313
4.60592e-312
-3.97253e-311
3.4201e-310
-2.93546e-309
2.51183e-308
-2.14278e-307
1.82236e-306
-1.5451e-305
1.30599e-304
-1.10047e-303
9.24427e-303
-7.74133e-302
6.46256e-301
-5.37817e-300
4.46172e-299
-3.6898e-298
3.04182e-297
-2.4997e-296
2.04769e-295
-1.67208e-294
1.36101e-293
-1.10427e-292
8.93079e-292
-7.19956e-291
5.78517e-290
-4.63359e-289
3.69917e-288
-2.94356e-287
2.33463e-286
-1.84559e-285
1.45418e-284
-1.142e-283
8.93867e-283
-6.9732e-282
5.42175e-281
-4.20137e-280
3.24475e-279
-2.4975e-278
1.91583e-277
-1.46465e-276
1.11591e-275
-8.47301e-275
6.41142e-274
-4.83475e-273
3.63322e-272
-2.72084e-271
2.03048e-270
-1.51001e-269
1.11901e-268
-8.26341e-268
6.08065e-267
-4.45861e-266
3.25764e-265
-2.37167e-264
1.72047e-263
-1.24359e-262
8.95644e-262
-6.42715e-261
4.59536e-260
-3.27365e-259
2.32354e-258
-1.64312e-257
1.15766e-256
-8.126e-256
5.68269e-255
-3.95918e-254
2.74804e-253
-1.9002e-252
1.30898e-251
-8.98274e-251
6.14082e-250
-4.18192e-249
2.83694e-248
-1.91709e-247
1.29047e-246
-8.65277e-246
5.77908e-245
-3.8446e-244
2.54756e-243
-1.6814e-242
1.1053e-241
-7.23687e-241
4.71921e-240
-3.06499e-239
1.98254e-238
-1.27714e-237
8.19357e-237
-5.23498e-236
3.33085e-235
-2.11051e-234
1.33168e-233
-8.36726e-233
5.23517e-232
-3.26161e-231
2.02338e-230
-1.24985e-229
7.68716e-229
-4.70747e-228
2.87021e-227
-1.74236e-226
1.05304e-225
-6.33616e-225
3.79553e-224
-2.26346e-223
1.34374e-222
-7.94122e-222
4.67176e-221
-2.73579e-220
1.59471e-219
-9.25263e-219
5.34346e-218
-3.07143e-217
1.75714e-216
-1.00048e-215
5.66938e-215
-3.19721e-214
1.79434e-213
-1.00212e-212
5.56934e-212
-3.07995e-211
1.69482e-210
-9.27966e-210
5.05534e-209
-2.74009e-208
1.47761e-207
-7.92724e-207
4.23089e-206
-2.24633e-205
1.1864e-204
-6.23288e-204
3.25707e-203
-1.69289e-202
8.75134e-202
-4.49932e-201
2.30053e-200
-1.16976e-199
5.91467e-199
-2.97381e-198
1.4867e-197
-7.38987e-197
3.65203e-196
-1.79428e-195
8.76366e-195
-4.25494e-194
2.05348e-193
-9.85031e-193
4.69622e-192
-2.22514e-191
1.04774e-190
-4.90233e-190
2.27919e-189
-1.05282e-188
4.83165e-188
-2.20278e-187
9.97585e-187
-4.48741e-186
2.00482e-185
-8.8951e-185
3.91909e-184
-1.71451e-183
7.4469e-183
-3.21105e-182
1.3744e-181
-5.83887e-181
2.46175e-180
-1.02994e-179
4.27542e-179
-1.76073e-178
7.19276e-178
-2.91426e-177
1.17093e-176
-4.66481e-176
1.84235e-175
-7.21224e-175
2.79803e-174
-1.07556e-173
4.09578e-173
-1.54476e-172
5.76911e-172
-2.13293e-171
7.80461e-171
-2.8256e-170
1.01187e-169
-3.58299e-169
1.25407e-168
-4.33695e-168
1.4813e-167
-4.99448e-167
1.66149e-166
-5.45008e-166
1.76163e-165
-5.60661e-165
1.75538e-164
-5.4011e-164
1.63117e-163
-4.82818e-163
1.39814e-162
-3.95206e-162
1.08726e-161
-2.89995e-161
7.45834e-161
-1.8349e-160
4.26349e-160
-9.14623e-160
1.72669e-159
-2.49552e-159
8.59783e-160
1.23994e-158
-6.6789e-158
2.44935e-157
-7.5167e-157
2.02695e-156
-4.82308e-156
9.80807e-156
-1.51265e-155
7.38839e-156
6.48197e-155
-3.55808e-154
1.25048e-153
-3.52723e-153
8.25858e-153
-1.52458e-152
1.64021e-152
2.43557e-152
-2.19306e-151
8.42998e-151
-2.4019e-150
5.37363e-150
-8.55848e-150
3.3916e-150
4.0565e-149
-2.02453e-148
6.32645e-148
-1.47368e-147
2.36183e-147
-7.6706e-148
-1.19438e-146
5.65988e-146
-1.6648e-145
3.4813e-145
-4.11774e-145
-4.92691e-145
4.72579e-144
-1.6691e-143
3.94794e-143
-5.73471e-143
-1.51577e-143
4.28911e-142
-1.66141e-141
4.04166e-141
-5.82103e-141
-2.2076e-141
4.58631e-140
-1.69326e-139
3.82636e-139
-4.4159e-139
-6.82469e-139
5.46369e-138
-1.69799e-137
3.13631e-137
-1.3982e-137
-1.43694e-136
6.36144e-136
-1.51238e-135
1.72072e-135
3.01109e-135
-2.2012e-134
6.29557e-134
-9.52079e-134
-4.26717e-134
7.48918e-133
-2.45661e-132
4.22601e-132
5.70788e-134
-2.64047e-131
9.35054e-131
-1.67178e-130
9.83952e-132
9.97366e-130
-3.52631e-129
6.04177e-129
9.34847e-130
-4.03091e-128
1.31121e-127
-1.95516e-127
-1.46689e-127
1.68489e-126
-4.69079e-126
5.18152e-126
1.16091e-125
-6.93425e-125
1.53857e-124
-7.38495e-125
-6.9711e-124
2.6624e-123
-4.18852e-123
-2.94876e-123
3.44818e-122
-8.90633e-122
6.65354e-122
3.32246e-121
-1.4097e-120
2.26323e-120
1.66005e-120
-1.84994e-119
4.48522e-119
-2.14352e-119
-2.04964e-118
7.22642e-118
-8.63404e-118
-1.82374e-117
1.03133e-116
-1.83133e-116
-9.72398e-117
1.35436e-115
-3.17158e-115
7.17226e-116
1.67409e-114
-4.95531e-114
3.47637e-114
1.98282e-113
-7.29307e-113
7.5639e-113
2.29338e-112
-1.03646e-111
1.32708e-111
2.65578e-111
-1.44574e-110
2.09021e-110
3.18405e-110
-2.00113e-109
3.07056e-109
4.0991e-109
-2.76629e-108
4.26916e-108
5.79329e-108
-3.82635e-107
5.62614e-107
8.91862e-107
-5.28232e-106
6.953e-106
1.44878e-105
-7.22825e-105
7.82252e-105
2.39492e-104
-9.69613e-104
7.41254e-104
3.91416e-103
-1.25479e-102
4.32596e-103
6.19552e-102
-1.52965e-101
-3.53267e-102
9.34297e-101
-1.68599e-100
-1.88427e-100
1.31986e-99
-1.53097e-99
-4.42047e-99
1.70649e-98
-7.79422e-99
-8.05273e-98
1.93725e-97
9.02665e-98
-1.24184e-96
1.7465e-96
3.75636e-96
-1.63269e-95
7.85972e-96
7.65232e-95
-1.74661e-94
-1.25002e-94
1.17051e-93
-1.25628e-93
-4.35935e-93
1.39556e-92
1.4682e-93
-7.85804e-92
1.15089e-91
2.50064e-91
-1.00876e-90
1.649e-91
5.229e-90
-8.59904e-90
-1.57926e-89
6.91684e-89
-1.2821e-89
-3.54945e-88
5.59159e-88
1.14653e-87
-4.54295e-87
-1.26028e-88
2.44893e-86
-3.08809e-86
-9.15442e-86
2.79249e-85
1.43089e-85
-1.65877e-84
1.22482e-84
7.35336e-84
-1.5014e-83
-2.17488e-83
1.03711e-82
1.16559e-85
-5.46269e-82
5.82877e-82
2.25663e-81
-5.3844e-81
-6.36043e-81
3.44841e-80
-4.74618e-82
-1.79349e-79
1.71137e-79
7.74655e-79
-1.58885e-78
-2.60855e-78
1.04889e-77
4.57346e-78
-5.79463e-77
2.35567e-77
2.79519e-76
-3.38302e-76
-1.17772e-75
2.60637e-75
4.14218e-75
-1.62374e-74
-9.98031e-75
8.9398e-74
-7.41734e-75
-4.49403e-73
3.13966e-73
2.08855e-72
-2.79696e-72
-8.97647e-72
1.89771e-71
3.52219e-71
-1.1326e-70
-1.21346e-70
6.24818e-70
3.23712e-70
-3.26283e-69
-2.50935e-70
1.63526e-68
-5.00511e-69
-7.93784e-68
5.23452e-68
3.75737e-67
-3.75692e-67
-1.74404e-66
2.33222e-66
7.97843e-66
-1.33739e-65
-3.61515e-65
7.28994e-65
1.63089e-64
-3.83515e-64
-7.3652e-64
1.96511e-63
3.34859e-63
-9.86354e-63
-1.54111e-62
4.86747e-62
7.21294e-62
-2.36659e-61
-3.44361e-61
1.1347e-60
1.67838e-60
-5.3638e-60
-8.33771e-60
2.49628e-59
4.20619e-59
-1.14067e-58
-2.14399e-58
5.09488e-58
1.09797e-57
-2.20893e-57
-5.61691e-57
9.19198e-57
2.85472e-56
-3.5999e-56
-1.43386e-55
1.27541e-55
7.08074e-55
-3.68343e-55
-3.41905e-54
5.00837e-55
1.60417e-53
3.91326e-54
-7.25473e-53
-4.87348e-53
3.12651e-52
3.6702e-52
-1.26065e-51
-2.30111e-51
4.59405e-51
1.29201e-50
-1.39173e-50
-6.65626e-50
2.47664e-50
3.1639e-49
8.13935e-50
-1.37759e-48
-1.25608e-48
5.36602e-48
9.28741e-48
-1.7586e-47
-5.41043e-47
3.90217e-47
2.70359e-46
3.30227e-47
-1.17494e-45
-1.08425e-45
4.31485e-45
8.37826e-45
-1.19069e-44
-4.71678e-44
1.06532e-44
2.16297e-43
1.51584e-43
-8.02839e-43
-1.42304e-42
2.11571e-42
8.25675e-42
-9.06523e-43
-3.6616e-41
-3.39349e-41
1.22022e-40
2.76024e-40
-2.2419e-40
-1.42806e-39
-6.37538e-40
5.36462e-39
8.88266e-39
-1.24093e-38
-5.2317e-38
-1.03179e-38
2.08171e-37
3.00141e-37
-4.9952e-37
-1.89082e-36
-3.35513e-37
7.45783e-36
1.12096e-35
-1.60693e-35
-6.81672e-35
-2.65355e-35
2.44876e-34
4.51637e-34
-3.68227e-34
-2.37978e-33
-1.93583e-33
6.88812e-33
1.80809e-32
-9.63516e-34
-7.48149e-32
-1.10448e-31
1.31554e-31
6.50394e-31
4.9689e-31
-1.81694e-30
-4.91277e-30
-7.33272e-31
1.83625e-29
3.33591e-29
-1.69384e-29
-1.60545e-28
-2.07128e-28
2.75031e-28
1.29127e-27
1.18854e-27
-2.93995e-27
-9.88398e-27
-6.38874e-27
2.67055e-26
7.37005e-26
3.33548e-26
-2.21342e-25
-5.44644e-25
-1.86492e-25
1.7226e-24
4.0346e-24
1.30743e-24
-1.27189e-23
-3.00887e-23
-1.20465e-23
8.8864e-23
2.25056e-22
1.2708e-22
-5.77476e-22
-1.66863e-21
-1.3428e-21
3.34286e-21
1.20306e-20
1.33916e-20
-1.52922e-20
-8.2038e-20
-1.23207e-19
2.73587e-20
5.06677e-19
1.02976e-18
4.85701e-19
-2.59859e-18
-7.64581e-18
-8.23305e-18
8.21272e-18
4.82314e-17
8.36033e-17
2.66285e-17
-2.30496e-16
-6.41935e-16
-7.3419e-16
4.61147e-16
3.66248e-15
7.34962e-15
5.4522e-15
-1.17276e-14
-4.77956e-14
-7.96362e-14
-3.82373e-14
1.72465e-13
5.68039e-13
8.76165e-13
3.57659e-13
-1.99258e-12
-6.38028e-12
-1.01334e-11
-5.69152e-12
1.81663e-11
6.70193e-11
1.20462e-10
1.07284e-10
-9.83543e-11
-6.12897e-10
-1.36326e-09
-1.79814e-09
-6.46959e-10
3.88539e-09
1.28999e-08
2.40771e-08
2.77664e-08
4.05847e-09
-7.42454e-08
-2.2537e-07
-4.2207e-07
-5.35428e-07
-2.78158e-07
8.02125e-07
3.19127e-06
7.02375e-06
1.13479e-05
1.30532e-05
5.716e-06
-2.09683e-05
-7.99498e-05
-0.000181973
-0.000324852
-0.000474572
-0.000536629
-0.000317577
0.000520579
0.00250725
0.00640198
0.0132129
0.0241824
0.040728
0.0643342
0.0963971
0.138034
0.189883
0.25192
0.323332
0.402474
0.486924
0.573659
0.659311
0.740494
0.814144
0.877827
0.929965
0.969953
0.998146
1.01573
1.02449
1.02656
1.02412
1.01918
1.01336
1.00787
1.0034
1.00026
0.998432
0.997686
0.997701
0.998152
0.998765
0.99935
0.999802
1.00009
1.00022
1.00024
1.0002
1.00013
1.00006
1.00001
0.999986
0.999975
0.999976
0.999983
0.999991
0.999997
1
1
1
1
1
1
1
1
1
1
1
1
1
1
1
1
1
1
1
1
1
1
1
1
1
1
1
1
1
1
1
1
1
1
1
1
0.999999
0.999997
0.999993
0.999989
0.999987
0.999994
1.00002
1.00008
1.00018
1.00032
1.00047
1.00054
1.00032
0.999479
0.997493
0.993598
0.986787
0.975818
0.959272
0.935666
0.903603
0.861966
0.810117
0.74808
0.676668
0.597526
0.513076
0.426341
0.340689
0.259506
0.185856
0.122173
0.070035
0.0300466
0.00185405
-0.0157269
-0.0244882
-0.0265577
-0.0241201
-0.0191754
-0.0133625
-0.00786527
-0.00339851
-0.000261054
0.00156795
0.00231433
0.00229879
0.00184786
0.0012346
0.00064971
0.000198327
-8.59099e-05
-0.000218238
-0.000239261
-0.00019564
-0.000127401
-6.19603e-05
-1.34895e-05
1.44347e-05
2.48716e-05
2.37316e-05
1.69978e-05
9.1905e-06
2.90572e-06
-9.38328e-07
-2.53305e-06
-2.58675e-06
-1.87703e-06
-1.00097e-06
-2.97706e-07
1.18121e-07
2.75328e-07
2.64257e-07
1.78214e-07
8.38979e-08
1.50423e-08
-2.05981e-08
-2.98825e-08
-2.43248e-08
-1.39281e-08
-4.7828e-09
7.87467e-10
2.92983e-09
2.85529e-09
1.84508e-09
7.78328e-10
5.66365e-11
-2.66163e-10
-3.06482e-10
-2.13645e-10
-9.83535e-11
-1.533e-11
2.41554e-11
3.12704e-11
2.25257e-11
1.05872e-11
1.8315e-12
-2.34027e-12
-3.09382e-12
-2.19977e-12
-9.98518e-13
-1.42274e-13
2.44735e-13
2.97062e-13
1.99109e-13
8.22319e-14
4.87635e-15
-2.62682e-14
-2.72716e-14
-1.6491e-14
-5.70169e-15
6.46194e-16
2.71335e-15
2.33588e-15
1.21647e-15
2.96454e-16
-1.61589e-16
-2.57202e-16
-1.81068e-16
-7.59112e-17
-5.76761e-18
2.14837e-17
2.16575e-17
1.22037e-17
3.52849e-18
-1.04074e-18
-2.15294e-18
-1.57183e-18
-6.67137e-19
-5.83056e-20
1.74387e-19
1.73548e-19
9.39878e-20
2.42701e-20
-1.01233e-20
-1.68474e-20
-1.12478e-20
-4.16563e-21
1.01659e-22
1.44531e-21
1.20048e-21
5.53477e-22
8.23663e-23
-1.07972e-22
-1.17143e-22
-6.38527e-23
-1.62232e-23
6.64563e-24
1.06118e-23
6.69153e-24
2.20329e-24
-2.6961e-25
-9.0223e-25
-6.52536e-25
-2.53267e-25
-5.56323e-27
7.26586e-26
6.01346e-26
2.62471e-26
2.86393e-27
-5.59328e-27
-5.29586e-27
-2.52466e-27
-4.20019e-28
4.1597e-28
4.49588e-28
2.29095e-28
4.69415e-29
-3.02883e-29
-3.70489e-29
-1.98114e-29
-4.55594e-30
2.19529e-30
2.97978e-30
1.64339e-30
4.01367e-31
-1.61262e-31
-2.34824e-31
-1.31305e-31
-3.27082e-32
1.21837e-32
1.8174e-32
1.01278e-32
2.48438e-33
-9.51959e-34
-1.38226e-33
-7.54655e-34
-1.7593e-34
7.64439e-35
1.03221e-34
5.42829e-35
1.15338e-35
-6.21813e-36
-7.55114e-36
-3.76125e-36
-6.87432e-37
5.03893e-37
5.39379e-37
2.50123e-37
3.56751e-38
-4.00975e-38
-3.74664e-38
-1.58735e-38
-1.41755e-39
3.09965e-39
2.51887e-39
9.53161e-40
1.64882e-41
-2.31002e-40
-1.6302e-40
-5.34186e-41
4.53252e-42
1.65054e-41
1.00922e-41
2.72704e-42
-6.65883e-43
-1.12567e-42
-5.92862e-43
-1.20411e-43
6.51016e-44
7.29656e-44
3.26826e-44
3.93526e-45
-5.32886e-45
-4.47324e-45
-1.6615e-45
-1.55967e-47
3.88408e-46
2.57701e-46
7.54346e-47
-1.22096e-47
-2.58087e-47
-1.38178e-47
-2.83703e-48
1.42077e-48
1.57752e-48
6.78788e-49
6.62702e-50
-1.15458e-49
-8.87815e-50
-2.96512e-50
1.68679e-51
7.87572e-51
4.57326e-51
1.07407e-51
-3.68521e-52
-4.74323e-52
-2.12338e-52
-2.49747e-53
3.23149e-53
2.5865e-53
5.61592e-54
)
;

boundaryField
{
    sides
    {
        type            zeroGradient;
    }
    empty
    {
        type            empty;
    }
}


// ************************************************************************* //
