/*--------------------------------*- C++ -*----------------------------------*\
| =========                 |                                                 |
| \\      /  F ield         | OpenFOAM: The Open Source CFD Toolbox           |
|  \\    /   O peration     | Version:  2312                                  |
|   \\  /    A nd           | Website:  www.openfoam.com                      |
|    \\/     M anipulation  |                                                 |
\*---------------------------------------------------------------------------*/
FoamFile
{
    version     2.0;
    format      ascii;
    arch        "LSB;label=32;scalar=64";
    class       volScalarField;
    location    "0.4";
    object      T;
}
// * * * * * * * * * * * * * * * * * * * * * * * * * * * * * * * * * * * * * //

dimensions      [0 0 0 1 0 0 0];

internalField   nonuniform List<scalar> 
1000
(
0
0
0
0
0
0
0
0
0
0
0
0
0
0
0
0
0
0
0
0
0
0
0
0
0
0
0
0
0
0
0
0
0
0
0
0
0
0
0
0
0
0
0
0
0
0
0
0
0
0
0
0
0
0
0
0
0
0
0
0
0
0
0
0
0
0
0
0
0
0
0
0
0
0
0
0
0
0
0
0
0
0
0
0
0
0
0
0
0
0
0
0
0
0
0
0
0
0
0
0
0
0
0
0
0
0
0
0
0
0
0
0
0
0
0
0
0
0
0
0
0
0
0
0
0
0
0
0
0
0
0
0
0
0
0
0
0
0
0
0
0
0
0
0
0
0
0
0
0
0
0
0
0
0
0
0
0
0
0
0
0
0
0
0
0
0
0
0
0
0
0
0
0
0
0
0
0
0
0
0
0
0
0
0
0
0
0
0
0
0
0
0
0
0
0
0
0
0
0
0
0
0
0
0
0
0
0
0
0
0
0
0
0
0
0
0
0
0
0
0
0
0
0
0
0
0
0
0
0
0
0
0
0
0
0
0
0
0
0
0
0
0
0
0
0
0
0
0
0
0
0
0
0
0
0
0
0
0
0
0
0
0
0
0
0
0
0
0
0
0
0
0
0
0
0
0
0
0
0
0
0
0
0
0
0
0
0
0
0
0
0
0
0
0
0
0
0
0
0
0
0
0
0
0
0
0
0
0
0
0
0
0
0
0
0
0
0
0
0
0
0
0
0
0
0
0
0
0
0
0
0
0
0
0
0
0
0
0
0
0
0
0
0
0
0
0
0
0
0
0
0
0
0
0
0
0
0
0
0
0
0
0
0
0
0
0
0
0
0
0
0
0
0
0
0
0
0
0
0
0
0
0
0
0
0
0
0
0
0
0
0
0
0
0
0
0
0
0
0
0
0
0
0
0
0
0
2.33064e-46
-5.33086e-30
5.90698e-22
-4.47103e-18
3.04787e-16
-2.62995e-15
1.01027e-14
-2.86797e-14
7.42885e-14
-1.80659e-13
4.10451e-13
-8.69461e-13
1.69923e-12
-3.0031e-12
4.62799e-12
-5.70673e-12
3.94028e-12
6.46165e-12
-3.05826e-11
6.41625e-11
-8.30309e-11
2.78678e-11
1.7747e-10
-4.92184e-10
6.08003e-10
8.97584e-11
-1.945e-09
3.59414e-09
-1.48777e-09
-7.24568e-09
1.5878e-08
-4.89436e-09
-3.56961e-08
6.2743e-08
1.35381e-08
-1.78254e-07
1.66431e-07
2.91892e-07
-6.73296e-07
-2.20503e-07
1.84483e-06
-5.60323e-07
-4.26347e-06
3.15543e-06
9.40166e-06
-9.89059e-06
-2.09866e-05
2.38058e-05
5.04026e-05
-4.56763e-05
-0.000126243
5.18244e-05
0.000309989
6.08623e-05
-0.000657584
-0.000598729
0.00088736
0.00213509
0.000378259
-0.00417098
-0.00580148
0.00044576
0.0129947
0.0186879
0.00526286
-0.0287633
-0.0652082
-0.0673182
-0.0171647
0.0991215
0.269627
0.46447
0.649241
0.79829
0.901218
0.961494
0.990338
0.999561
1
1
1
1
1
1
1
1
1
1
1
1
1
1
1
1
1
1
1
1
1
1
1
1
1
1
1
1
1
1
1
1
1
1
1
1
1
1
1
1
1
1
1
1
1
1
1
1
1
1
1
1
1
1
1
1
1
1
1
1
1
1
0.999998
1
1
0.999997
0.999991
1.00001
1.00002
0.999976
0.99995
1.00005
1.00013
0.999943
0.999689
0.999952
1.00067
1.00059
0.999098
0.997852
0.999624
1.00419
1.00581
0.999548
0.986992
0.981317
0.994771
1.02881
1.06521
1.06725
1.01698
0.900602
0.730077
0.535279
0.350588
0.201619
0.0987488
0.0385024
0.0096677
0.000440948
8.17041e-12
4.66788e-13
1.62325e-15
2.38426e-16
2.3677e-16
2.3029e-16
2.15183e-16
1.90403e-16
1.58507e-16
1.24245e-16
9.22405e-17
6.54326e-17
4.4793e-17
2.98798e-17
1.95838e-17
1.26878e-17
8.15313e-18
5.20181e-18
3.29305e-18
2.06543e-18
1.28137e-18
7.85182e-19
4.7473e-19
2.83016e-19
1.663e-19
9.62969e-20
5.49464e-20
3.0894e-20
1.71171e-20
9.34608e-21
5.0292e-21
2.66728e-21
1.39435e-21
7.1853e-22
3.65036e-22
1.8285e-22
9.03179e-23
4.39984e-23
2.11421e-23
1.00225e-23
4.68809e-24
2.16412e-24
9.8607e-25
4.43564e-25
1.97017e-25
8.64232e-26
3.74468e-26
1.603e-26
6.7806e-27
2.8346e-27
1.17133e-27
4.7853e-28
1.93308e-28
7.7228e-29
3.05178e-29
1.19304e-29
4.6147e-30
1.76639e-30
6.6919e-31
2.50953e-31
9.31706e-32
3.42505e-32
1.24685e-32
4.49554e-33
1.60554e-33
5.68054e-34
1.99131e-34
6.9171e-35
2.38119e-35
8.12453e-36
2.74781e-36
9.21314e-37
3.06272e-37
1.00956e-37
3.3001e-38
1.06988e-38
3.44035e-39
1.09741e-39
3.47276e-40
1.09034e-40
3.39681e-41
1.05012e-41
3.22187e-42
9.81098e-43
2.96544e-43
8.89764e-44
2.65036e-44
7.83816e-45
2.30163e-45
6.71128e-46
1.94337e-46
5.58876e-47
1.59632e-47
4.52897e-48
1.27639e-48
3.57359e-49
9.94008e-50
2.74707e-50
7.54347e-51
2.05837e-51
5.58155e-52
1.50415e-52
4.02864e-53
1.07247e-53
2.83789e-54
7.46475e-55
1.95195e-55
5.07438e-56
1.31153e-56
3.3704e-57
8.61222e-58
2.18827e-58
5.52923e-59
1.38939e-59
3.47222e-60
8.63039e-61
2.13362e-61
5.24673e-62
1.28341e-62
3.12296e-63
7.55986e-64
1.82065e-64
4.36239e-65
1.03998e-65
2.4669e-66
5.82262e-67
1.36756e-67
3.19632e-68
7.43451e-69
1.72095e-69
3.96475e-70
9.09099e-71
2.07478e-71
4.7132e-72
1.06576e-72
2.39891e-73
5.3753e-74
1.19905e-74
2.66278e-75
5.88723e-76
1.29592e-76
2.84025e-77
6.19806e-78
1.34677e-78
2.91395e-79
6.27824e-80
1.34702e-80
2.87809e-81
6.1241e-82
1.29778e-82
2.73904e-83
5.7576e-84
1.20544e-84
2.51377e-85
5.22145e-86
1.08033e-86
2.22656e-87
4.57127e-88
9.34922e-89
1.90486e-89
3.86643e-90
7.81862e-91
1.57519e-91
3.16178e-92
6.32321e-93
1.25997e-93
2.50157e-94
4.94885e-95
9.75543e-96
1.91624e-96
3.75081e-97
7.31616e-98
1.42211e-98
2.75478e-99
5.31806e-100
1.02316e-100
1.96185e-101
3.74913e-102
7.14082e-103
1.35559e-103
2.56495e-104
4.83739e-105
9.09355e-106
1.70394e-106
3.18262e-107
5.92561e-108
1.09978e-108
2.03477e-109
3.75292e-110
6.90041e-111
1.26486e-111
2.31141e-112
4.21106e-113
7.64877e-114
1.38511e-114
2.50082e-115
4.50184e-116
8.08008e-117
1.446e-117
2.58021e-118
4.59074e-119
8.14442e-120
1.44077e-120
2.54152e-121
4.47059e-122
7.8418e-123
1.37168e-123
2.39268e-124
4.16213e-125
7.22031e-126
1.24914e-126
2.1552e-127
3.70847e-128
6.36409e-129
1.08923e-129
1.85932e-130
3.1655e-131
5.3752e-132
9.10364e-133
1.53784e-133
2.59112e-134
4.35465e-135
7.29984e-136
1.2206e-136
2.03583e-137
3.38704e-138
5.62107e-139
9.30556e-140
1.53673e-140
2.53156e-141
4.16027e-142
6.82029e-143
1.11542e-143
1.81984e-144
2.96207e-145
4.8098e-146
7.79176e-147
1.25929e-147
2.03051e-148
3.26644e-149
5.24257e-150
8.39492e-151
1.34121e-151
2.13793e-152
3.40023e-153
5.3957e-154
8.54311e-155
1.34964e-155
2.12746e-156
3.34618e-157
5.25152e-158
8.22387e-159
1.28507e-159
2.00373e-160
3.11762e-161
4.84037e-162
7.49917e-163
1.15939e-163
1.78869e-164
2.75379e-165
4.23082e-166
6.48662e-167
9.92473e-168
1.5154e-168
2.30915e-169
3.51152e-170
5.3292e-171
8.07152e-172
1.22006e-172
1.84052e-173
2.77104e-174
4.16378e-175
6.24428e-176
9.34606e-177
1.39615e-177
2.08159e-178
3.09759e-179
4.60067e-180
6.8201e-181
1.00911e-181
1.49027e-182
2.19672e-183
3.23202e-184
4.74641e-185
6.95748e-186
1.01798e-186
1.48672e-187
2.16733e-188
3.15378e-189
4.58092e-190
6.64189e-191
9.61286e-192
1.3888e-192
2.00287e-193
2.88336e-194
4.14363e-195
5.94431e-196
8.51265e-197
1.21695e-197
1.73673e-198
2.47425e-199
3.51894e-200
4.99618e-201
7.08153e-202
1.00203e-202
1.41549e-203
1.99619e-204
2.81044e-205
3.95026e-206
5.54318e-207
7.76563e-208
1.08613e-208
1.51663e-209
2.11433e-210
2.9428e-211
4.08932e-212
5.67341e-213
7.85858e-214
1.08681e-214
1.50063e-215
2.06877e-216
2.84752e-217
3.9133e-218
5.36962e-219
7.35649e-220
1.0063e-220
1.37441e-221
1.87431e-222
2.55214e-223
3.46984e-224
4.71039e-225
6.38485e-226
8.64159e-227
1.16785e-227
1.57593e-228
2.12346e-229
2.857e-230
3.8383e-231
5.14911e-232
6.89753e-233
9.22625e-234
1.23234e-234
1.64365e-235
2.1891e-236
2.91141e-237
3.86655e-238
5.12777e-239
6.79082e-240
8.98061e-241
1.18599e-241
1.56406e-242
2.05978e-243
2.70888e-244
3.55763e-245
4.66591e-246
6.11109e-247
7.993e-248
1.04403e-248
1.36185e-249
1.77404e-250
2.30789e-251
2.99838e-252
3.89029e-253
5.04083e-254
6.52303e-255
8.42999e-256
1.08802e-256
1.40242e-257
1.80534e-258
2.321e-259
2.98012e-260
3.8215e-261
4.89417e-262
6.25996e-263
7.99672e-264
1.02024e-264
1.30002e-265
1.65443e-266
2.10284e-267
2.66945e-268
3.38453e-269
4.28587e-270
5.42057e-271
6.84728e-272
8.63893e-273
1.08861e-273
1.37012e-274
1.72234e-275
2.16251e-276
2.71191e-277
3.39682e-278
4.24964e-279
5.31028e-280
6.62778e-281
8.26243e-282
1.02881e-282
1.27955e-283
1.58955e-284
1.97235e-285
2.44451e-286
3.02622e-287
3.74204e-288
4.62189e-289
5.70211e-290
7.0268e-291
8.64943e-292
1.06348e-292
1.30611e-293
1.6023e-294
1.96347e-295
2.40337e-296
2.93856e-297
3.58897e-298
4.37851e-299
5.33589e-300
6.49549e-301
)
;

boundaryField
{
    sides
    {
        type            zeroGradient;
    }
    empty
    {
        type            empty;
    }
}


// ************************************************************************* //
