/*--------------------------------*- C++ -*----------------------------------*\
| =========                 |                                                 |
| \\      /  F ield         | OpenFOAM: The Open Source CFD Toolbox           |
|  \\    /   O peration     | Version:  2312                                  |
|   \\  /    A nd           | Website:  www.openfoam.com                      |
|    \\/     M anipulation  |                                                 |
\*---------------------------------------------------------------------------*/
FoamFile
{
    version     2.0;
    format      ascii;
    arch        "LSB;label=32;scalar=64";
    class       volScalarField;
    location    "0.1";
    object      T;
}
// * * * * * * * * * * * * * * * * * * * * * * * * * * * * * * * * * * * * * //

dimensions      [0 0 0 1 0 0 0];

internalField   nonuniform List<scalar> 
1000
(
0
0
0
0
0
0
0
0
0
0
0
0
0
0
0
0
0
0
0
0
0
0
0
0
0
0
0
0
0
0
0
0
0
0
0
0
0
0
0
0
0
0
0
0
0
0
0
0
0
0
0
0
0
0
0
0
0
0
0
0
0
0
0
0
0
0
0
0
0
0
0
0
0
0
0
0
0
0
0
0
0
0
0
0
0
0
0
0
0
0
0
0
0
0
0
0
0
0
0
0
0
0
0
0
0
0
0
0
0
0
0
0
0
0
0
0
0
0
0
0
0
0
0
0
0
0
0
0
0
0
0
0
0
0
0
0
0
0
0
0
0
0
0
0
0
0
0
0
0
0
0
0
0
0
0
0
0
0
0
0
0
0
0
0
0
0
0
0
0
0
0
0
0
0
0
0
0
0
0
0
0
0
0
0
0
0
0
0
0
0
0
0
0
0
0
0
0
0
0
0
0
0
0
0
0
0
0
0
0
0
0
0
0
0
0
0
0
0
0
0
0
0
0
0
0
0
0
0
0
0
0
0
0
0
0
0
0
0
0
0
0
0
0
0
0
0
0
0
0
0
0
0
0
0
0
0
0
0
0
0
0
0
0
0
0
0
0
0
0
0
0
0
0
0
0
0
0
0
0
0
0
0
0
0
0
0
0
0
0
0
0
0
0
0
0
0
0
0
0
0
0
0
0
0
0
0
0
0
0
0
0
0
0
0
0
0
0
0
0
0
0
0
0
0
0
0
0
0
0
0
0
0
0
0
0
0
0
0
0
0
0
0
0
0
0
0
0
0
0
0
0
0
0
0
0
0
0
0
0
0
0
0
0
0
0
0
0
0
0
0
0
0
0
0
0
0
0
0
0
0
0
0
0
0
0
0
0
0
0
0
0
0
0
0
0
0
0
0
0
0
0
0
0
0
0
0
0
0
0
0
0
0
0
0
0
0
0
0
0
0
0
0
0
0
0
0
0
0
0
0
0
0
0
0
0
0
0
0
0
0
0
0
0
0
0
0
0
0
0
0
0.00139461
0.0102694
0.0387899
0.100498
0.201614
0.335456
0.484507
0.628138
0.750388
0.843742
0.908496
0.949703
0.973959
0.987257
0.994088
0.997391
0.998902
0.999558
0.99983
0.999937
0.999977
0.999992
0.999997
0.999999
1
1
1
1
1
1
1
1
1
1
1
1
1
1
1
1
1
1
1
1
1
1
1
1
1
1
1
1
1
1
1
1
1
1
1
1
1
1
1
1
1
1
1
1
1
1
1
1
1
1
1
1
1
1
1
1
1
1
1
1
1
1
1
1
1
1
1
1
1
1
1
1
1
1
1
1
0.998605
0.989731
0.96121
0.899502
0.798386
0.664544
0.515493
0.371862
0.249612
0.156258
0.0915042
0.0502972
0.0260412
0.0127428
0.00591232
0.00260883
0.00109786
0.000441762
0.000170375
6.31186e-05
2.25075e-05
7.73978e-06
2.57109e-06
8.26396e-07
2.57389e-07
7.779e-08
2.28427e-08
6.52505e-09
1.81517e-09
4.92272e-10
1.30278e-10
3.36758e-11
8.50983e-12
2.10394e-12
5.09318e-13
1.2081e-13
2.80977e-14
6.41176e-15
1.43644e-15
3.16121e-16
6.8378e-17
1.45447e-17
3.04392e-18
6.27065e-19
1.27215e-19
2.54271e-20
5.00922e-21
9.73038e-22
1.8644e-22
3.52497e-23
6.57855e-24
1.21229e-24
2.20662e-25
3.96844e-26
7.05367e-27
1.23947e-27
2.15377e-28
3.70188e-29
6.29521e-30
1.05943e-30
1.76485e-31
2.91082e-32
4.75436e-33
7.69178e-34
1.23285e-34
1.95806e-35
3.08217e-36
4.80933e-37
7.44021e-38
1.14139e-38
1.73661e-39
2.62098e-40
3.92448e-41
5.83079e-42
8.59728e-43
1.25819e-43
1.82787e-44
2.63641e-45
3.7758e-46
5.37017e-47
7.58584e-48
1.06441e-48
1.48373e-49
2.05489e-50
2.82788e-51
3.86739e-52
5.25661e-53
7.10179e-54
9.53781e-55
1.27347e-55
1.69057e-56
2.2316e-57
2.92942e-58
3.82442e-59
4.96598e-60
6.41414e-61
8.24136e-62
1.05347e-62
1.33981e-63
1.69548e-64
2.13503e-65
2.67552e-66
3.33685e-67
4.14209e-68
5.11784e-69
6.29457e-70
7.70701e-71
9.39451e-72
1.14014e-72
1.37772e-73
1.65773e-74
1.98628e-75
2.37007e-76
2.81648e-77
3.33346e-78
3.92965e-79
4.61427e-80
5.39717e-81
6.28875e-82
7.29995e-83
8.44217e-84
9.72716e-85
1.1167e-85
1.2774e-86
1.45605e-87
1.65386e-88
1.87206e-89
2.11181e-90
2.37423e-91
2.66036e-92
2.97115e-93
3.30744e-94
3.66996e-95
4.05928e-96
4.47578e-97
4.9197e-98
5.39105e-99
5.88963e-100
6.41503e-101
6.96656e-102
7.54333e-103
8.14416e-104
8.76764e-105
9.41207e-106
1.00755e-106
1.07558e-107
1.14506e-108
1.21571e-109
1.28725e-110
1.35938e-111
1.43178e-112
1.50412e-113
1.57604e-114
1.64719e-115
1.71722e-116
1.78575e-117
1.85244e-118
1.91692e-119
1.97885e-120
2.03789e-121
2.09371e-122
2.14601e-123
2.19451e-124
2.23894e-125
2.27906e-126
2.31467e-127
2.34559e-128
2.37166e-129
2.39276e-130
2.40882e-131
2.41977e-132
2.42559e-133
2.4263e-134
2.42194e-135
2.41259e-136
2.39834e-137
2.37934e-138
2.35574e-139
2.32771e-140
2.29548e-141
2.25926e-142
2.2193e-143
2.17585e-144
2.12919e-145
2.07959e-146
2.02735e-147
1.97275e-148
1.91609e-149
1.85767e-150
1.79777e-151
1.73669e-152
1.6747e-153
1.61208e-154
1.5491e-155
1.486e-156
1.42302e-157
1.36039e-158
1.29833e-159
1.23702e-160
1.17665e-161
1.11739e-162
1.05938e-163
1.00275e-164
9.47633e-166
8.94116e-167
8.42289e-168
7.92223e-169
7.43975e-170
6.97589e-171
6.53095e-172
6.10511e-173
5.69845e-174
5.31093e-175
4.94244e-176
4.59275e-177
4.26158e-178
3.94857e-179
3.6533e-180
3.37529e-181
3.11403e-182
2.86896e-183
2.63949e-184
2.42503e-185
2.22493e-186
2.03857e-187
1.86529e-188
1.70446e-189
1.55542e-190
1.41753e-191
1.29018e-192
1.17274e-193
1.06461e-194
9.65214e-196
8.73982e-197
7.90373e-198
7.13866e-199
6.43961e-200
5.80183e-201
5.2208e-202
4.69223e-203
4.21206e-204
3.77649e-205
3.38191e-206
3.02498e-207
2.70253e-208
2.41163e-209
2.14954e-210
1.91373e-211
1.70183e-212
1.51168e-213
1.34126e-214
1.18871e-215
1.05234e-216
9.30589e-218
8.22016e-219
7.25318e-220
6.39301e-221
5.62879e-222
4.95061e-223
4.34952e-224
3.81737e-225
3.34682e-226
2.93121e-227
2.56456e-228
2.24146e-229
1.95707e-230
1.70702e-231
1.48742e-232
1.29477e-233
1.12595e-234
9.78178e-236
8.48961e-237
7.36094e-238
6.37613e-239
5.51775e-240
4.77035e-241
4.12026e-242
3.5554e-243
3.06509e-244
2.63992e-245
2.27162e-246
1.9529e-247
1.67736e-248
1.43938e-249
1.23404e-250
1.05704e-251
9.04622e-253
7.73491e-254
6.60783e-255
5.64002e-256
4.80975e-257
4.09814e-258
3.4888e-259
2.96751e-260
2.52195e-261
2.14148e-262
1.81687e-263
1.54018e-264
1.30453e-265
1.10402e-266
9.33564e-268
7.88777e-269
6.65902e-270
5.61714e-271
4.73446e-272
3.98729e-273
3.35536e-274
2.82135e-275
2.37046e-276
1.99007e-277
1.66942e-278
1.39936e-279
1.17208e-280
9.80961e-282
8.20384e-283
6.85573e-284
5.72484e-285
4.77692e-286
3.983e-287
3.31857e-288
2.76294e-289
2.29866e-290
1.911e-291
1.58757e-292
1.31793e-293
1.09331e-294
9.06319e-296
7.5078e-297
6.21496e-298
5.14115e-299
4.2499e-300
3.51072e-301
2.89811e-302
2.39075e-303
1.97087e-304
1.62363e-305
1.33667e-306
1.09968e-307
9.0411e-309
7.42825e-310
6.09908e-311
5.00446e-312
4.1036e-313
3.36272e-314
2.75382e-315
2.25372e-316
1.84326e-317
1.50658e-318
1.23062e-319
1.00444e-320
8.15208e-322
6.42285e-323
4.94066e-324
0
0
0
0
0
0
0
0
0
0
0
0
0
0
0
0
0
0
0
0
0
0
0
0
0
0
0
0
0
0
0
0
0
0
0
0
0
0
0
0
0
0
0
0
0
0
0
0
0
0
0
0
0
0
0
0
0
0
0
0
0
0
0
0
0
0
0
0
0
0
0
0
0
0
0
0
0
0
0
0
0
0
0
0
0
0
0
0
0
0
0
0
0
0
0
0
0
)
;

boundaryField
{
    sides
    {
        type            zeroGradient;
    }
    empty
    {
        type            empty;
    }
}


// ************************************************************************* //
