/*--------------------------------*- C++ -*----------------------------------*\
| =========                 |                                                 |
| \\      /  F ield         | OpenFOAM: The Open Source CFD Toolbox           |
|  \\    /   O peration     | Version:  2312                                  |
|   \\  /    A nd           | Website:  www.openfoam.com                      |
|    \\/     M anipulation  |                                                 |
\*---------------------------------------------------------------------------*/
FoamFile
{
    version     2.0;
    format      ascii;
    arch        "LSB;label=32;scalar=64";
    class       volScalarField;
    location    "3.2";
    object      T;
}
// * * * * * * * * * * * * * * * * * * * * * * * * * * * * * * * * * * * * * //

dimensions      [0 0 0 1 0 0 0];

internalField   nonuniform List<scalar> 
1000
(
0
0
0
0
0
0
0
0
0
0
0
0
0
0
0
0
0
0
0
0
0
0
0
0
0
0
0
0
0
0
0
0
0
0
0
0
0
0
0
0
0
0
0
0
0
0
0
0
0
0
0
0
0
0
0
0
0
0
0
0
0
0
0
0
0
0
0
0
0
0
0
0
0
0
0
0
0
0
0
0
0
0
0
0
0
0
0
0
0
0
0
0
0
0
0
0
0
0
0
0
0
0
0
0
0
0
0
0
0
0
0
0
0
0
0
0
0
0
0
0
0
0
0
0
0
0
0
0
0
0
0
0
0
0
0
0
0
0
0
0
0
0
0
0
0
0
0
0
0
0
0
0
0
0
0
0
0
0
0
0
0
0
0
0
0
0
0
0
0
0
0
0
0
0
0
0
0
0
0
0
0
0
0
0
0
0
0
0
0
0
0
0
0
0
0
0
0
0
0
0
0
0
0
0
0
0
0
0
0
0
0
0
0
0
0
0
0
0
0
0
0
0
0
0
0
0
0
0
0
0
0
0
0
0
0
0
0
0
0
0
0
0
0
0
0
0
0
0
0
0
0
0
0
0
0
0
0
0
0
0
0
0
0
0
0
0
0
0
0
0
0
0
0
0
0
0
0
0
0
0
0
0
0
0
0
0
0
0
0
0
0
0
0
0
0
0
0
0
0
0
0
0
0
0
0
0
0
0
0
0
0
0
0
0
0
0
0
0
0
0
0
0
0
0
0
0
0
0
0
0
0
0
0
0
0
0
0
0
0
0
0
0
0
0
0
0
0
0
0
0
0
0
0
0
0
0
0
0
0
0
0
0
0
0
0
0
0
0
0
0
0
0
0
0
0
0
0
0
0
0
0
0
0
0
0
0
0
0
0
0
0
0
0
0
0
0
0
0
0
0
0
0
0
0
2.08286e-122
-1.39822e-106
8.4016e-99
-4.86467e-95
-5.28968e-93
-2.11465e-91
4.28624e-91
5.00032e-88
3.18977e-86
1.28607e-84
3.96095e-83
1.0016e-81
2.16188e-80
4.08303e-79
6.8662e-78
1.04157e-76
1.4398e-75
1.82853e-74
2.14778e-73
2.34632e-72
2.39518e-71
2.29397e-70
2.06838e-69
1.76095e-68
1.4192e-67
1.08508e-66
7.88488e-66
5.45384e-65
3.59501e-64
2.26024e-63
1.35604e-62
7.76332e-62
4.23861e-61
2.20379e-60
1.08822e-59
5.0792e-59
2.22215e-58
8.97181e-58
3.23593e-57
9.58086e-57
1.59181e-56
-6.34142e-56
-9.03889e-55
-6.68984e-54
-4.03426e-53
-2.17706e-52
-1.09002e-51
-5.15529e-51
-2.32708e-50
-1.00914e-49
-4.22281e-49
-1.71056e-48
-6.72347e-48
-2.56896e-47
-9.55572e-47
-3.46441e-46
-1.22544e-45
-4.23288e-45
-1.42892e-44
-4.71768e-44
-1.52444e-43
-4.82456e-43
-1.49651e-42
-4.55294e-42
-1.3596e-41
-3.98812e-41
-1.14998e-40
-3.26209e-40
-9.10954e-40
-2.50596e-39
-6.79471e-39
-1.81668e-38
-4.79099e-38
-1.24643e-37
-3.19887e-37
-8.09688e-37
-2.02061e-36
-4.96916e-36
-1.20359e-35
-2.86948e-35
-6.72971e-35
-1.55172e-34
-3.51606e-34
-7.82695e-34
-1.71155e-33
-3.6774e-33
-7.76803e-33
-1.61501e-32
-3.31021e-32
-6.70433e-32
-1.34568e-31
-2.68582e-31
-5.34893e-31
-1.06611e-30
-2.13046e-30
-4.26893e-30
-8.56046e-30
-1.71142e-29
-3.39328e-29
-6.63137e-29
-1.26871e-28
-2.35877e-28
-4.22538e-28
-7.21372e-28
-1.1549e-27
-1.68515e-27
-2.1029e-27
-1.80632e-27
5.93686e-28
7.89535e-27
2.51344e-26
6.03742e-26
1.24705e-25
2.29727e-25
3.79141e-25
5.48747e-25
6.46461e-25
4.42513e-25
-5.36855e-25
-3.14409e-24
-8.72755e-24
-1.91075e-23
-3.61495e-23
-6.04612e-23
-8.84569e-23
-1.06752e-22
-8.27331e-23
4.94324e-23
4.06534e-22
1.17337e-21
2.60795e-21
5.01254e-21
8.63327e-21
1.34328e-20
1.86678e-20
2.22048e-20
1.95558e-20
2.72764e-21
-4.07801e-20
-1.28101e-19
-2.78953e-19
-5.09398e-19
-8.1871e-19
-1.16635e-18
-1.43675e-18
-1.3923e-18
-6.19541e-19
1.51602e-18
5.87498e-18
1.34548e-17
2.51234e-17
4.10699e-17
5.9888e-17
7.73244e-17
8.49954e-17
6.84816e-17
2.33644e-18
-1.58626e-16
-4.91403e-16
-1.06697e-15
-1.82027e-15
-2.3748e-15
-9.49476e-16
5.72179e-15
1.33773e-14
1.0776e-14
-1.42872e-14
-4.43797e-14
-3.25301e-14
4.80772e-14
1.28628e-13
7.31019e-14
-1.63724e-13
-3.50072e-13
-1.38979e-13
5.08268e-13
9.14279e-13
2.43927e-13
-1.47663e-12
-2.37349e-12
-4.24221e-13
4.03029e-12
6.15635e-12
1.0674e-12
-1.05268e-11
-1.63058e-11
-3.73438e-12
2.62316e-11
4.34426e-11
1.54869e-11
-5.98841e-11
-1.17179e-10
-6.37177e-11
1.2594e-10
3.08802e-10
2.33267e-10
-2.15042e-10
-7.74536e-10
-7.71412e-10
1.69803e-10
1.74548e-09
2.36274e-09
6.78962e-10
-3.3106e-09
-6.55283e-09
-4.68729e-09
4.10835e-09
1.57771e-08
1.80564e-08
3.09082e-09
-2.8303e-08
-5.34977e-08
-4.15556e-08
2.30593e-08
1.17464e-07
1.6169e-07
8.16498e-08
-1.43383e-07
-4.13971e-07
-4.68622e-07
-1.57041e-07
5.60786e-07
1.33444e-06
1.41893e-06
4.30598e-07
-1.75494e-06
-4.15464e-06
-4.61568e-06
-1.98548e-06
4.33849e-06
1.21449e-05
1.57549e-05
1.055e-05
-6.03918e-06
-3.09633e-05
-5.17247e-05
-5.04377e-05
-1.72218e-05
5.2223e-05
0.0001396
0.000197829
0.000176586
4.31774e-05
-0.000211843
-0.000532992
-0.000780567
-0.000770574
-0.000405078
0.000412014
0.00161676
0.00292311
0.00374726
0.00353722
0.00190401
-0.00156186
-0.00686111
-0.0133964
-0.019768
-0.0236415
-0.0228696
-0.0158895
-0.000255328
0.0260548
0.0643021
0.114789
0.176778
0.24854
0.327537
0.4107
0.494756
0.576559
0.653374
0.723076
0.784262
0.836257
0.879047
0.913153
0.939475
0.959136
0.973333
0.983232
0.989883
0.994177
0.996829
0.998389
0.999254
0.999699
0.999907
0.999987
1
1
1
1
1
1
1
1
1
1
1
1
1
1
1
1
1
1
1
1
1
1
1
1
1
1
1
1
1
1
1
1
0.999999
0.999999
0.999999
1
1
1
1
1
0.999996
0.999988
0.999984
0.999989
1.00001
1.00003
1.00005
1.00005
1.00002
0.999948
0.999861
0.999802
0.999824
0.999957
1.00021
1.00053
1.00078
1.00077
1.0004
0.999587
0.998383
0.997077
0.996254
0.996465
0.9981
1.00157
1.00687
1.01341
1.01977
1.02363
1.02285
1.01586
1.00021
0.973884
0.935622
0.885121
0.823122
0.751353
0.672352
0.589191
0.505141
0.423346
0.346543
0.276852
0.215679
0.163696
0.120916
0.0868197
0.0605049
0.0408506
0.0266575
0.0167617
0.0101132
0.00582122
0.00316945
0.00161052
0.000746169
0.000300704
9.31349e-05
1.27409e-05
1.22951e-16
1.20867e-16
1.19508e-16
1.16538e-16
1.12185e-16
1.06747e-16
1.00507e-16
9.37168e-17
8.66021e-17
7.93556e-17
7.21399e-17
6.50882e-17
5.83059e-17
5.18732e-17
4.58471e-17
4.02649e-17
3.51465e-17
3.04976e-17
2.63122e-17
2.25751e-17
1.92642e-17
1.63525e-17
1.38099e-17
1.16046e-17
9.704e-18
8.07624e-18
6.69045e-18
5.51743e-18
4.53003e-18
3.70333e-18
3.0148e-18
2.44421e-18
1.97368e-18
1.58749e-18
1.27199e-18
1.01539e-18
8.07593e-19
6.4003e-19
5.05464e-19
3.97828e-19
3.12065e-19
2.4399e-19
1.90153e-19
1.47728e-19
1.14414e-19
8.83439e-20
6.80103e-20
5.22028e-20
3.99534e-20
3.0491e-20
2.3204e-20
1.76093e-20
1.33267e-20
1.00581e-20
7.57062e-21
5.68302e-21
4.25468e-21
3.17688e-21
2.36586e-21
1.75726e-21
1.3018e-21
9.61876e-22
7.08866e-22
5.21052e-22
3.82008e-22
2.79344e-22
2.03743e-22
1.4822e-22
1.07549e-22
7.7837e-23
5.61883e-23
4.04562e-23
2.90539e-23
2.08115e-23
1.4869e-23
1.0596e-23
7.53145e-24
5.33946e-24
3.77568e-24
2.66302e-24
1.87341e-24
1.31454e-24
9.20011e-25
6.42236e-25
4.47176e-25
3.10559e-25
2.15127e-25
1.48637e-25
1.02434e-25
7.04124e-26
4.82769e-26
3.30155e-26
2.25209e-26
1.5323e-26
1.03991e-26
7.03946e-27
4.75312e-27
3.20121e-27
2.15055e-27
1.44107e-27
9.63209e-28
6.42187e-28
4.27079e-28
2.83311e-28
1.87469e-28
1.23739e-28
8.14701e-29
5.35066e-29
3.50538e-29
2.29079e-29
1.49334e-29
9.71089e-30
6.29924e-30
4.07613e-30
2.63113e-30
1.69423e-30
1.08828e-30
6.9735e-31
4.45764e-31
2.84254e-31
1.80824e-31
1.14751e-31
7.26464e-32
4.58805e-32
2.89069e-32
1.81692e-32
1.1393e-32
7.12699e-33
4.4478e-33
2.76922e-33
1.72007e-33
1.06589e-33
6.58959e-34
4.06433e-34
2.50096e-34
1.53537e-34
9.40394e-35
5.74647e-35
3.5034e-35
2.13097e-35
1.2932e-35
7.82998e-36
4.73001e-36
2.85084e-36
1.71433e-36
1.02856e-36
6.15723e-37
3.67755e-37
2.19156e-37
1.30309e-37
7.73073e-38
4.57611e-38
2.70274e-38
1.59274e-38
9.36536e-39
5.49467e-39
3.21662e-39
1.87889e-39
1.09509e-39
6.36861e-40
3.69565e-40
2.13988e-40
1.23636e-40
7.12779e-41
4.1004e-41
2.35374e-41
1.3482e-41
7.70581e-42
4.3949e-42
2.50122e-42
1.42045e-42
8.04962e-43
4.552e-43
2.56867e-43
1.44642e-43
8.12767e-44
4.55745e-44
2.55015e-44
1.42397e-44
7.93462e-45
4.41211e-45
2.44829e-45
1.35574e-45
7.49187e-46
4.13149e-46
2.27367e-46
1.24869e-46
6.84369e-47
3.74314e-47
2.04312e-47
1.11293e-47
6.04999e-48
3.28218e-48
1.77701e-48
9.60149e-49
5.17741e-49
2.7862e-49
1.49637e-49
8.02045e-50
4.29031e-50
2.29041e-50
1.22032e-50
6.4889e-51
3.44357e-51
1.82384e-51
9.64074e-52
5.08603e-52
)
;

boundaryField
{
    sides
    {
        type            zeroGradient;
    }
    empty
    {
        type            empty;
    }
}


// ************************************************************************* //
