/*--------------------------------*- C++ -*----------------------------------*\
| =========                 |                                                 |
| \\      /  F ield         | OpenFOAM: The Open Source CFD Toolbox           |
|  \\    /   O peration     | Version:  2312                                  |
|   \\  /    A nd           | Website:  www.openfoam.com                      |
|    \\/     M anipulation  |                                                 |
\*---------------------------------------------------------------------------*/
FoamFile
{
    version     2.0;
    format      ascii;
    arch        "LSB;label=32;scalar=64";
    class       volScalarField;
    location    "1.6";
    object      T;
}
// * * * * * * * * * * * * * * * * * * * * * * * * * * * * * * * * * * * * * //

dimensions      [0 0 0 1 0 0 0];

internalField   nonuniform List<scalar> 
1000
(
0
0
0
0
0
0
0
0
0
0
0
0
0
0
0
0
0
0
0
0
0
0
0
0
0
0
0
0
0
0
0
0
0
0
0
0
0
0
0
0
0
0
0
0
0
0
0
0
0
0
0
0
0
0
0
0
0
0
0
0
0
0
0
0
0
0
0
0
0
0
0
0
0
0
0
0
0
0
4.94066e-324
-2.32211e-322
4.01675e-321
-7.01919e-320
1.22561e-318
-2.13216e-317
3.69557e-316
-6.38173e-315
1.09797e-313
-1.88203e-312
3.21404e-311
-5.46835e-310
9.26913e-309
-1.56529e-307
2.63344e-306
-4.41384e-305
7.37011e-304
-1.226e-302
2.03171e-301
-3.35416e-300
5.51637e-299
-9.0379e-298
1.4751e-296
-2.39834e-295
3.88447e-294
-6.2673e-293
1.00729e-291
-1.61267e-290
2.57189e-289
-4.08575e-288
6.46544e-287
-1.01913e-285
1.60013e-284
-2.50253e-283
3.89844e-282
-6.04909e-281
9.34911e-280
-1.43922e-278
2.20677e-277
-3.3702e-276
5.12647e-275
-7.76675e-274
1.17197e-272
-1.76133e-271
2.6364e-270
-3.93027e-269
5.83539e-268
-8.62877e-267
1.27073e-265
-1.86372e-264
2.72222e-263
-3.95984e-262
5.73639e-261
-8.27565e-260
1.18894e-258
-1.70103e-257
2.42354e-256
-3.43851e-255
4.85808e-254
-6.83488e-253
9.57552e-252
-1.33584e-250
1.85567e-249
-2.56682e-248
3.53537e-247
-4.84856e-246
6.62099e-245
-9.00244e-244
1.21876e-242
-1.64283e-241
2.20484e-240
-2.94623e-239
3.9197e-238
-5.19196e-237
6.84693e-236
-8.98961e-235
1.17506e-233
-1.52914e-232
1.98105e-231
-2.55505e-230
3.28059e-229
-4.19322e-228
5.33555e-227
-6.75835e-226
8.52167e-225
-1.06961e-223
1.3364e-222
-1.66207e-221
2.0576e-220
-2.53548e-219
3.10986e-218
-3.79662e-217
4.61342e-216
-5.57967e-215
6.71658e-214
-8.047e-213
9.59531e-212
-1.13872e-210
1.34492e-209
-1.58086e-208
1.84927e-207
-2.15281e-206
2.49405e-205
-2.87535e-204
3.29877e-203
-3.76603e-202
4.27834e-201
-4.83637e-200
5.44011e-199
-6.0888e-198
6.78082e-197
-7.51367e-196
8.28383e-195
-9.0868e-194
9.91705e-193
-1.07681e-191
1.16323e-190
-1.25014e-189
1.33661e-188
-1.42167e-187
1.50428e-186
-1.58338e-185
1.65789e-184
-1.72677e-183
1.789e-182
-1.84363e-181
1.88978e-180
-1.9267e-179
1.95377e-178
-1.9705e-177
1.97657e-176
-1.97184e-175
1.95633e-174
-1.93025e-173
1.89397e-172
-1.84804e-171
1.79315e-170
-1.73011e-169
1.65987e-168
-1.58344e-167
1.50193e-166
-1.41645e-165
1.32815e-164
-1.23814e-163
1.14752e-162
-1.05732e-161
9.6848e-161
-8.81864e-160
7.98225e-159
-7.18204e-158
6.42325e-157
-5.70995e-156
5.04505e-155
-4.43036e-154
3.86669e-153
-3.35389e-152
2.89104e-151
-2.4765e-150
2.10808e-149
-1.78312e-148
1.49867e-147
-1.25154e-146
1.03844e-145
-8.56045e-145
7.01089e-144
-5.70418e-143
4.6104e-142
-3.70161e-141
2.9521e-140
-2.33851e-139
1.83992e-138
-1.43775e-137
1.11579e-136
-8.59932e-136
6.58135e-135
-5.00163e-134
3.77425e-133
-2.82782e-132
2.10354e-131
-1.55348e-130
1.13891e-129
-8.28865e-129
5.98769e-128
-4.2933e-127
3.05531e-126
-2.15786e-125
1.51241e-124
-1.05188e-123
7.25917e-123
-4.9705e-122
3.37658e-121
-2.27555e-120
1.52125e-119
-1.00875e-118
6.63446e-118
-4.32746e-117
2.79918e-116
-1.79541e-115
1.14182e-114
-7.19931e-114
4.49998e-113
-2.78814e-112
1.71223e-111
-1.04211e-110
6.28531e-110
-3.75625e-109
2.22409e-108
-1.30459e-107
7.58004e-107
-4.36208e-106
2.48593e-105
-1.40282e-104
7.83754e-104
-4.33474e-103
2.37297e-102
-1.2856e-101
6.89186e-101
-3.65527e-100
1.91771e-99
-9.95077e-99
5.10577e-98
-2.5901e-97
1.29879e-96
-6.43641e-96
3.15162e-95
-1.52446e-94
7.28254e-94
-3.43503e-93
1.59935e-92
-7.3485e-92
3.33095e-91
-1.48906e-90
6.56278e-90
-2.85058e-89
1.21977e-88
-5.13977e-88
2.13171e-87
-8.6979e-87
3.48954e-86
-1.37571e-85
5.32608e-85
-2.02343e-84
7.53717e-84
-2.75021e-83
9.81962e-83
-3.42659e-82
1.16693e-81
-3.87164e-81
1.24888e-80
-3.90667e-80
1.18127e-79
-3.43794e-79
9.57472e-79
-2.53032e-78
6.26246e-78
-1.41882e-77
2.8078e-77
-4.2574e-77
1.9386e-77
1.89449e-76
-1.02905e-75
3.59708e-75
-1.00116e-74
2.26585e-74
-3.81576e-74
2.4911e-74
1.37222e-73
-7.73789e-73
2.52243e-72
-6.00376e-72
9.65507e-72
-2.59793e-72
-5.12087e-71
2.3188e-70
-6.35977e-70
1.13423e-69
-5.60394e-70
-4.96819e-69
2.33964e-68
-6.09012e-68
8.99363e-68
3.68416e-68
-7.07589e-67
2.44563e-66
-4.71395e-66
2.14179e-66
2.15903e-65
-9.14509e-65
1.92931e-64
-1.15172e-64
-7.90756e-64
3.4412e-63
-6.87411e-63
2.04088e-63
3.53174e-62
-1.28642e-61
2.02544e-61
1.32805e-61
-1.64967e-60
4.35344e-60
-3.47096e-60
-1.56577e-59
6.7907e-59
-1.07421e-58
-9.20489e-59
9.06324e-58
-2.02914e-57
3.07091e-58
1.11688e-56
-3.22256e-56
2.06372e-56
1.34896e-55
-4.72141e-55
4.21097e-55
1.69219e-54
-6.65328e-54
6.43581e-54
2.30533e-53
-9.16832e-53
8.03523e-53
3.43202e-52
-1.23143e-51
7.55363e-52
5.38471e-51
-1.57557e-50
2.36685e-51
8.42935e-50
-1.82846e-49
-1.13927e-49
1.24661e-48
-1.7229e-48
-3.76526e-48
1.64328e-47
-8.29223e-48
-7.66115e-47
1.76041e-46
1.29647e-46
-1.17768e-45
1.15526e-45
4.65005e-45
-1.33054e-44
-5.72638e-45
8.03078e-44
-8.08804e-44
-3.23312e-43
8.60277e-43
6.33322e-43
-5.3834e-42
3.09647e-42
2.50053e-41
-4.45764e-41
-8.36084e-41
3.22742e-40
1.12274e-40
-1.8003e-39
1.10216e-39
8.38403e-39
-1.29587e-38
-3.27122e-38
9.26809e-38
9.87821e-38
-5.46102e-37
-1.36026e-37
2.87257e-36
-1.0379e-36
-1.39775e-35
1.26274e-35
6.4231e-35
-9.26106e-35
-2.83005e-34
5.70064e-34
1.21237e-33
-3.20059e-33
-5.12939e-33
1.69783e-32
2.1851e-32
-8.66808e-32
-9.58742e-32
4.30293e-31
4.42646e-31
-2.08729e-30
-2.1755e-30
9.90158e-30
1.13302e-29
-4.57787e-29
-6.14036e-29
2.04601e-28
3.38316e-28
-8.70746e-28
-1.8547e-27
3.43192e-27
9.93886e-27
-1.18027e-26
-5.12739e-26
2.94692e-26
2.50763e-25
4.7853e-27
-1.14009e-24
-7.36833e-25
4.67006e-24
6.57904e-24
-1.61515e-23
-4.18326e-23
3.8406e-23
2.17896e-22
2.02479e-23
-9.41574e-22
-9.7583e-22
3.16254e-21
7.44686e-21
-5.92483e-21
-3.85628e-20
-1.75094e-20
1.45064e-19
2.46397e-19
-3.16159e-19
-1.43821e-18
-5.18212e-19
5.34806e-18
9.40792e-18
-9.17514e-18
-5.19971e-17
-3.79051e-17
1.56863e-16
3.93842e-16
-2.43813e-17
-1.63268e-15
-2.55424e-15
2.31062e-15
1.41002e-14
1.51454e-14
-2.90918e-14
-1.1167e-13
-8.99157e-14
2.67715e-13
8.54422e-13
6.11937e-13
-2.07807e-12
-6.46728e-12
-5.19515e-12
1.37225e-11
4.81334e-11
5.08358e-11
-6.91622e-11
-3.3862e-10
-4.97038e-10
1.16728e-10
2.06777e-09
4.36295e-09
2.82885e-09
-8.79981e-09
-3.12016e-08
-4.52413e-08
-2.95482e-09
1.49459e-07
3.89126e-07
4.87667e-07
-5.45336e-08
-1.78788e-06
-4.5741e-06
-6.37018e-06
-2.25693e-06
1.46344e-05
4.80721e-05
8.81682e-05
9.72689e-05
3.53443e-07
-0.000304571
-0.00089548
-0.00171643
-0.00240451
-0.00207576
0.00087435
0.00887283
0.0250833
0.053069
0.0962021
0.156904
0.235878
0.331546
0.439879
0.554739
0.668704
0.774232
0.864881
0.936328
0.986923
1.01768
1.03179
1.03369
1.02816
1.01944
1.01069
1.00376
0.999347
0.997294
0.996963
0.997595
0.998548
0.999404
0.999975
1.00025
1.0003
1.00023
1.00012
1.00004
0.99999
0.999972
0.999974
0.999984
0.999994
1
1
1
1
1
1
1
1
1
1
1
1
1
1
1
1
1
1
1
1
1
1
1
1
1
1
1
1
1
1
1
1
1
1
1
1
1
1
1
1
1
1
1
1
1
1
1
1
1
1.00001
1
0.999985
0.999952
0.999912
0.999903
1
1.0003
1.0009
1.00172
1.0024
1.00208
0.999126
0.991127
0.974917
0.946931
0.903798
0.843096
0.764122
0.668454
0.560121
0.445261
0.331296
0.225768
0.135119
0.0636717
0.0130775
-0.0176844
-0.031787
-0.0336889
-0.0281613
-0.0194426
-0.0106853
-0.0037559
0.000652833
0.00270571
0.00303725
0.00240503
0.00145209
0.000596342
2.52421e-05
-0.000246048
-0.000295735
-0.000226962
-0.000124827
-3.97559e-05
1.02297e-05
2.823e-05
2.62109e-05
1.62471e-05
6.37165e-06
3.63439e-08
-2.54161e-06
-2.63031e-06
-1.67455e-06
-6.60189e-07
-1.11501e-08
2.42273e-07
2.42205e-07
1.44697e-07
4.94682e-08
-6.00844e-09
-2.37496e-08
-2.01573e-08
-1.02906e-08
-2.36631e-09
1.44527e-09
2.13808e-09
1.43049e-09
5.49571e-10
3.45968e-12
-1.81467e-10
-1.5981e-10
-7.87869e-11
-1.5569e-11
1.2247e-11
1.53974e-11
9.0611e-12
2.70525e-12
-5.97265e-13
-1.33414e-12
-9.07437e-13
-3.28846e-13
1.03349e-14
1.07426e-13
8.24276e-14
3.32864e-14
1.86078e-15
-8.28072e-15
-6.95869e-15
-2.97356e-15
-2.85414e-16
6.27072e-16
5.54131e-16
2.40526e-16
2.54982e-17
-4.74391e-17
-4.19371e-17
-1.78087e-17
-1.63541e-18
3.59394e-18
3.02051e-18
1.20849e-18
6.50165e-20
-2.6959e-19
-2.0626e-19
-7.46088e-20
9.81589e-22
1.96526e-20
1.32476e-20
4.11225e-21
-5.12352e-22
-1.36545e-21
-7.909e-22
-1.94055e-22
6.34909e-23
8.88803e-23
4.31657e-23
6.9941e-24
-5.69926e-24
-5.33815e-24
-2.09904e-24
-9.92868e-26
4.23351e-25
2.91216e-25
8.66492e-26
-1.1969e-26
-2.70972e-26
-1.41381e-26
-2.67233e-27
1.50389e-27
1.51219e-27
5.9008e-28
2.6667e-29
-1.12378e-28
-7.32504e-29
-1.95763e-29
4.04323e-30
6.56321e-30
3.01078e-30
3.82929e-31
-4.07462e-31
-3.16624e-31
-9.8668e-32
8.49459e-33
2.51173e-32
1.26007e-32
2.05837e-33
-1.38151e-33
-1.19175e-33
-3.91928e-34
1.8328e-35
8.77739e-35
4.49659e-35
7.57608e-36
-4.61177e-36
-3.98975e-36
-1.28015e-36
7.30495e-38
2.84173e-37
1.38771e-37
2.04367e-38
-1.52606e-38
-1.19301e-38
-3.45634e-39
3.96928e-40
8.47036e-40
3.69175e-40
3.68391e-41
-4.82143e-41
-3.1555e-41
-7.50613e-42
1.83076e-42
2.2764e-42
8.29871e-43
1.61602e-44
-1.3833e-43
-7.22733e-44
-1.19429e-44
6.63591e-45
5.3633e-45
1.50617e-45
-1.79714e-46
-3.45828e-46
-1.38447e-46
-8.78692e-48
1.91099e-47
1.07157e-47
1.96314e-48
-8.43579e-49
-7.29136e-49
-2.08024e-49
2.11994e-50
4.41074e-50
1.73322e-50
9.75709e-52
-2.34707e-51
-1.2518e-51
-2.05257e-52
1.04919e-52
8.10764e-53
2.06652e-53
-3.32142e-54
-4.76447e-54
-1.64895e-54
-5.40344e-57
2.53536e-55
1.15073e-55
1.26323e-56
-1.19958e-56
-7.28065e-57
-1.41157e-57
4.77946e-58
4.24169e-58
1.14851e-58
-1.31387e-59
-2.28804e-59
-8.02106e-60
-9.80432e-62
1.14032e-60
5.06679e-61
5.11731e-62
-5.19067e-62
-2.96255e-62
-5.11862e-63
2.09448e-63
1.62199e-63
3.85295e-64
-6.89374e-65
-8.36212e-65
-2.52303e-65
1.2605e-66
4.0658e-66
1.50887e-66
5.69379e-68
-1.86022e-67
-8.42762e-68
-8.87145e-69
7.95079e-69
4.44988e-69
7.21899e-70
-3.12355e-70
-2.23707e-70
-4.78534e-71
1.08704e-71
1.0754e-71
2.83707e-72
-3.01928e-73
-4.95527e-73
-1.55986e-73
3.71439e-75
2.19075e-74
8.09882e-75
3.12482e-76
-9.28868e-76
-4.01262e-76
-3.57853e-77
3.76918e-77
1.90987e-77
2.53088e-78
-1.45736e-78
-8.77254e-79
-1.50272e-79
5.32522e-80
3.90137e-80
8.08765e-81
-1.81039e-81
-1.68398e-81
-4.07172e-82
5.54114e-83
7.0681e-83
1.94894e-83
-1.40121e-84
-2.88901e-84
-8.95492e-85
1.97906e-86
1.1513e-85
3.97449e-86
7.24529e-88
-4.47739e-87
-1.71141e-87
-8.89586e-89
1.70057e-88
7.17261e-89
5.80603e-90
-6.31194e-90
-2.93312e-90
-3.118e-91
2.29059e-91
1.17266e-91
1.51082e-92
-8.13068e-93
-4.59108e-93
-6.84488e-94
2.82387e-94
1.76262e-94
2.95139e-95
-9.59901e-96
-6.64391e-96
-1.22352e-96
3.19441e-97
2.46129e-97
4.90808e-98
-1.04103e-98
-8.96982e-99
-1.91346e-99
3.32362e-100
3.21847e-100
7.27249e-101
-1.04009e-101
-1.13786e-101
-2.70088e-102
3.19303e-103
3.96645e-103
9.81853e-104
-9.62914e-105
-1.36413e-104
-3.49869e-105
2.85837e-106
4.63117e-106
1.22335e-106
-8.37829e-108
-1.55282e-107
-4.20113e-108
2.43606e-109
5.14437e-109
1.41791e-109
-7.07061e-111
-1.68455e-110
-4.70592e-111
2.06509e-112
5.45385e-112
1.53653e-112
-6.12365e-114
-1.7462e-113
-4.93727e-114
1.85877e-115
5.53006e-115
1.56166e-115
-5.80517e-117
-1.73243e-116
-4.86308e-117
1.86606e-118
5.36893e-118
1.49107e-118
-6.14583e-120
-1.64597e-119
-4.50146e-120
2.05774e-121
4.99146e-121
1.33797e-121
-6.94293e-123
-1.4971e-122
-3.91484e-123
2.34197e-124
4.44039e-124
1.12736e-124
-7.84818e-126
-1.30211e-125
-3.19449e-126
2.654e-127
3.23197e-127
)
;

boundaryField
{
    sides
    {
        type            zeroGradient;
    }
    empty
    {
        type            empty;
    }
}


// ************************************************************************* //
