/*--------------------------------*- C++ -*----------------------------------*\
| =========                 |                                                 |
| \\      /  F ield         | OpenFOAM: The Open Source CFD Toolbox           |
|  \\    /   O peration     | Version:  2312                                  |
|   \\  /    A nd           | Website:  www.openfoam.com                      |
|    \\/     M anipulation  |                                                 |
\*---------------------------------------------------------------------------*/
FoamFile
{
    version     2.0;
    format      ascii;
    arch        "LSB;label=32;scalar=64";
    class       volScalarField;
    location    "0.9";
    object      T;
}
// * * * * * * * * * * * * * * * * * * * * * * * * * * * * * * * * * * * * * //

dimensions      [0 0 0 1 0 0 0];

internalField   nonuniform List<scalar> 
1000
(
0
0
0
0
0
0
0
0
0
0
0
0
0
0
0
0
0
0
0
0
0
0
0
0
0
0
0
0
0
0
0
0
0
0
0
0
0
0
0
0
0
0
0
0
0
0
0
0
0
0
0
0
0
0
0
0
0
0
0
0
0
0
0
0
0
0
0
0
0
0
0
0
0
0
0
0
0
0
0
0
0
0
0
0
0
0
0
0
0
0
0
0
0
0
0
0
0
0
0
0
0
0
0
0
0
0
0
0
0
0
0
0
0
0
0
0
0
0
0
0
0
0
0
0
0
0
0
0
0
0
0
0
0
0
0
0
0
0
0
0
0
0
0
0
0
0
0
0
0
0
0
0
0
0
0
0
0
0
0
0
0
0
0
0
0
0
0
0
0
0
0
0
0
0
0
0
0
0
0
0
0
0
0
0
0
0
0
0
0
0
0
0
0
0
0
0
0
0
0
0
0
0
0
0
0
0
0
0
0
0
0
0
0
0
0
0
0
0
0
0
0
0
0
0
0
0
0
0
0
0
0
0
0
0
0
0
0
0
0
0
0
0
0
0
0
0
0
0
0
0
0
0
0
0
0
0
0
0
0
0
0
0
0
0
0
0
0
0
0
0
0
0
0
0
0
0
0
0
0
0
0
0
0
0
0
0
0
0
0
0
0
0
0
0
0
0
0
0
0
0
0
0
0
0
0
0
0
0
0
0
0
0
0
0
0
0
0
0
0
0
0
0
0
0
0
0
0
0
0
0
0
0
0
0
0
0
0
0
0
0
0
0
0
0
0
0
0
0
0
0
0
0
0
0
0
0
0
0
0
0
0
0
0
0
0
0
0
0
0
0
0
0
0
0
0
0
0
0
0
0
0
0
0
0
0
0
0
0
0
0
0
0
0
0
0
0
0
0
0
0
0
0
0
0
0
0
0
0
0
0
0
0
0
0
0
0
0
0
0
0
0
0
0
0
0
0
0
0
0
0
0
0
0
0
0
0
0
0
0
0
0
0
0
0
0
0
0
0
0
0
1.99566e-26
1.16292e-24
3.39297e-23
6.60867e-22
9.66739e-21
1.13292e-19
1.10793e-18
9.3001e-18
6.84048e-17
4.47869e-16
2.6429e-15
1.41985e-14
7.00245e-14
3.19251e-13
1.35354e-12
5.36407e-12
1.99592e-11
7.00041e-11
2.32246e-10
7.3108e-10
2.18972e-09
6.25622e-09
1.70896e-08
4.47254e-08
1.1236e-07
2.71436e-07
6.31583e-07
1.4176e-06
3.07359e-06
6.4458e-06
1.30911e-05
2.57775e-05
4.92655e-05
9.14792e-05
0.000165195
0.000290378
0.000497278
0.00083035
0.00135299
0.0021529
0.00334787
0.0050913
0.007577
0.0110423
0.0157684
0.0220775
0.0303254
0.0408898
0.0541534
0.070483
0.0902062
0.113586
0.140795
0.171897
0.206826
0.245382
0.287223
0.33188
0.37877
0.42722
0.4765
0.525854
0.574534
0.621838
0.667133
0.709881
0.749655
0.786148
0.819173
0.848655
0.874627
0.897207
0.916585
0.933004
0.946743
0.958097
0.967366
0.974843
0.980802
0.985497
0.989153
0.991968
0.994111
0.995725
0.996926
0.997812
0.998457
0.998922
0.999254
0.999489
0.999653
0.999766
0.999844
0.999897
0.999933
0.999956
0.999972
0.999982
0.999989
0.999993
0.999996
0.999997
0.999998
0.999999
0.999999
1
1
1
1
1
1
1
1
1
1
1
1
1
1
1
1
1
1
1
1
1
0.999999
0.999999
0.999997
0.999994
0.999987
0.999974
0.999951
0.999909
0.999835
0.99971
0.999503
0.99917
0.998647
0.997847
0.996652
0.994909
0.992423
0.988958
0.984232
0.977923
0.969675
0.95911
0.945847
0.929517
0.909794
0.886414
0.859205
0.828103
0.793174
0.754618
0.712777
0.66812
0.62123
0.57278
0.5235
0.474146
0.425466
0.378162
0.332867
0.290119
0.250345
0.213852
0.180827
0.151345
0.125373
0.102793
0.0834154
0.066996
0.0532573
0.0419034
0.0326342
0.0251575
0.0191979
0.014503
0.0108468
0.00803184
0.00588878
0.00427526
0.00307367
0.00218849
0.00154331
0.001078
0.000745893
0.000511279
0.000347215
0.000233633
0.000155775
0.000102926
6.73983e-05
4.37428e-05
2.81405e-05
1.79456e-05
1.13454e-05
7.11135e-06
4.41964e-06
2.7237e-06
1.66456e-06
1.00889e-06
6.06488e-07
3.61633e-07
2.13901e-07
1.25512e-07
7.3067e-08
4.22034e-08
2.41878e-08
1.37562e-08
7.7639e-09
4.34884e-09
2.41772e-09
1.33416e-09
7.30809e-10
3.97397e-10
2.14534e-10
1.14987e-10
6.11932e-11
3.23363e-11
1.69681e-11
8.84221e-12
4.57611e-12
2.35215e-12
1.20086e-12
6.08975e-13
3.0677e-13
1.53517e-13
7.63229e-14
3.76989e-14
1.85012e-14
9.02182e-15
4.37151e-15
2.10491e-15
1.00722e-15
4.78983e-16
2.26384e-16
1.06346e-16
4.96557e-17
2.30466e-17
1.0633e-17
4.87678e-18
2.22362e-18
1.00799e-18
4.54299e-19
2.03579e-19
9.07087e-20
4.01891e-20
1.77063e-20
7.75762e-21
3.38006e-21
1.46465e-21
6.31214e-22
2.70562e-22
1.15351e-22
4.89166e-23
2.06343e-23
8.65839e-24
3.61422e-24
1.50085e-24
6.20042e-25
2.54848e-25
1.04216e-25
4.24026e-26
1.71661e-26
6.91496e-27
2.77177e-27
1.10558e-27
4.38835e-28
1.73343e-28
6.81428e-29
2.66596e-29
1.03806e-29
4.02288e-30
1.55172e-30
5.95753e-31
2.27669e-31
8.66051e-32
3.2794e-32
1.23615e-32
4.63859e-33
1.73281e-33
6.44432e-34
2.38604e-34
8.79559e-35
3.22812e-35
1.17962e-35
4.29199e-36
1.55491e-36
5.60915e-37
2.01485e-37
7.207e-38
2.5671e-38
9.10583e-39
3.21658e-39
1.13156e-39
3.96443e-40
1.38329e-40
4.80714e-41
1.66383e-41
5.73579e-42
1.96946e-42
6.73569e-43
2.2946e-43
7.7863e-44
2.63187e-44
8.86171e-45
2.97234e-45
9.93156e-46
3.30585e-46
1.09624e-46
3.62153e-47
1.19194e-47
3.90838e-48
1.27683e-48
4.15594e-49
1.34777e-49
4.3549e-50
1.40207e-50
4.49772e-51
1.43767e-51
4.57909e-52
1.45331e-52
4.59625e-53
1.44852e-53
4.54916e-54
1.42373e-54
4.44043e-55
1.38016e-55
4.27511e-56
1.31974e-56
4.06031e-57
1.245e-57
3.80471e-58
1.15885e-58
3.51798e-59
1.06445e-59
3.2102e-60
9.64985e-61
2.89132e-61
8.63511e-62
2.57064e-62
7.62823e-63
2.25643e-63
6.6534e-64
1.95566e-64
5.73034e-65
1.67382e-65
4.87403e-66
1.41489e-66
4.09467e-67
1.18136e-67
3.398e-68
9.74414e-69
2.78581e-69
7.9406e-70
2.2566e-70
6.39385e-71
1.80626e-71
5.08766e-72
1.42882e-72
4.00101e-73
1.11711e-73
3.11001e-74
8.63329e-75
2.3897e-75
6.59583e-76
1.81535e-76
4.98217e-77
1.3635e-77
3.72108e-78
1.01268e-78
2.7483e-79
7.43798e-80
2.00747e-80
5.40317e-81
1.45032e-81
3.88235e-82
1.03645e-82
2.75952e-83
7.32741e-84
1.94047e-84
5.12515e-85
1.35007e-85
3.54697e-86
9.29432e-87
2.42908e-87
6.33191e-88
1.64627e-88
4.26918e-89
1.10426e-89
2.84895e-90
7.33146e-91
1.88189e-91
4.81834e-92
1.23057e-92
3.13493e-93
7.96644e-94
2.01939e-94
5.10621e-95
1.28797e-95
3.24076e-96
8.1344e-97
2.03678e-97
5.08757e-98
1.26773e-98
3.15134e-99
7.81491e-100
1.93337e-100
4.7717e-101
1.17491e-101
2.88607e-102
7.0728e-103
1.72925e-103
4.21807e-104
1.0265e-104
2.49231e-105
6.03729e-106
1.45911e-106
3.51834e-107
8.46448e-108
2.03178e-108
4.86602e-109
1.16277e-109
2.77228e-110
6.59496e-111
1.56538e-111
3.70738e-112
8.76101e-113
2.06579e-113
4.86034e-114
1.14104e-114
2.67293e-115
6.24792e-116
1.45729e-116
3.39174e-117
7.87714e-118
1.82553e-118
4.22167e-119
9.74229e-120
2.24347e-120
5.15547e-121
1.18224e-121
2.70543e-122
6.17824e-123
1.40797e-123
3.20203e-124
7.26714e-125
1.64594e-125
3.72028e-126
8.39178e-127
1.88909e-127
4.24399e-128
9.51529e-129
2.12911e-129
4.75454e-130
1.05963e-130
2.35688e-131
5.23193e-132
1.15913e-132
2.563e-133
5.65609e-134
1.24577e-134
2.73852e-135
6.00834e-136
1.31569e-136
2.87555e-137
6.27271e-138
1.36572e-138
2.96784e-139
6.4372e-140
1.39359e-140
3.01129e-141
6.49468e-142
1.39814e-142
3.00424e-143
6.44336e-144
1.37939e-144
2.94755e-145
6.2869e-146
1.3385e-146
2.84449e-147
6.03397e-148
1.27765e-148
2.70047e-149
5.69749e-150
1.19991e-150
2.52253e-151
5.29358e-152
1.1089e-152
2.31881e-153
4.84028e-154
1.00859e-154
2.09794e-155
4.35628e-156
9.02986e-157
1.8685e-157
3.85969e-158
7.95907e-159
1.63842e-159
3.36702e-160
6.90754e-161
1.41469e-161
2.89243e-162
5.90377e-163
1.203e-163
2.44719e-164
4.96986e-165
1.00762e-165
2.0395e-166
4.12127e-167
8.31419e-168
1.67453e-168
3.36707e-169
6.75926e-170
1.35468e-170
2.71061e-171
5.41493e-172
1.07998e-172
2.15049e-173
4.27525e-174
8.48573e-175
1.6816e-175
3.32709e-176
6.57229e-177
1.29623e-177
2.55246e-178
5.01828e-179
9.85074e-180
1.93065e-180
3.77799e-181
7.38148e-182
1.43997e-182
2.80473e-183
5.45458e-184
1.05917e-184
2.05353e-185
3.97536e-186
7.68405e-187
1.48301e-187
2.85787e-188
5.49903e-189
1.05651e-189
2.02682e-190
3.88243e-191
7.42586e-192
1.41822e-192
2.70457e-193
)
;

boundaryField
{
    sides
    {
        type            zeroGradient;
    }
    empty
    {
        type            empty;
    }
}


// ************************************************************************* //
