/*--------------------------------*- C++ -*----------------------------------*\
| =========                 |                                                 |
| \\      /  F ield         | OpenFOAM: The Open Source CFD Toolbox           |
|  \\    /   O peration     | Version:  2312                                  |
|   \\  /    A nd           | Website:  www.openfoam.com                      |
|    \\/     M anipulation  |                                                 |
\*---------------------------------------------------------------------------*/
FoamFile
{
    version     2.0;
    format      ascii;
    arch        "LSB;label=32;scalar=64";
    class       volScalarField;
    location    "4.8";
    object      T;
}
// * * * * * * * * * * * * * * * * * * * * * * * * * * * * * * * * * * * * * //

dimensions      [0 0 0 1 0 0 0];

internalField   nonuniform List<scalar> 
1000
(
0
0
0
0
0
0
0
0
0
0
0
0
0
0
0
0
0
0
0
0
0
0
0
0
0
0
0
0
0
0
0
0
0
0
0
0
0
0
0
0
0
0
0
0
0
0
0
0
0
0
0
0
0
0
0
0
0
0
0
0
0
0
0
0
0
0
0
0
0
0
0
0
0
0
0
0
0
0
0
0
0
0
0
0
0
0
0
0
0
0
0
0
0
0
0
0
0
0
0
0
0
0
0
0
0
0
0
0
0
0
0
0
0
0
0
0
0
0
0
0
0
0
0
0
0
0
0
0
0
0
0
0
0
0
0
0
0
0
0
0
0
0
0
0
0
0
0
0
0
0
0
0
0
0
0
0
0
0
0
0
0
0
0
0
0
0
0
0
0
0
0
0
0
0
0
0
0
0
0
0
0
0
0
0
0
0
0
0
0
0
0
0
0
0
0
0
0
0
0
0
0
0
0
0
0
0
0
0
0
0
0
0
0
0
0
0
0
0
0
0
0
0
0
0
0
0
0
0
0
0
0
0
0
0
0
0
0
0
0
0
0
0
0
0
0
0
0
0
0
0
0
0
0
0
0
0
0
0
0
0
0
0
0
0
0
0
0
0
0
0
0
0
0
0
0
0
0
0
0
0
0
0
0
0
0
0
0
0
0
0
0
0
0
0
0
0
0
0
0
0
0
0
0
0
0
0
0
0
0
0
0
0
0
0
0
0
0
0
0
0
0
0
0
0
0
0
0
0
0
0
0
0
0
0
0
0
0
0
0
0
0
0
0
0
0
0
0
0
0
0
0
0
0
0
0
0
0
0
0
0
0
0
0
0
0
0
0
0
0
0
0
0
0
0
0
0
0
0
0
0
0
0
0
0
0
0
0
0
0
0
0
0
0
0
0
0
0
0
0
0
0
0
0
0
0
0
0
0
0
0
0
0
0
0
0
0
0
0
0
0
0
0
0
0
0
0
0
0
0
0
0
0
0
0
0
0
0
0
0
0
0
0
0
0
0
0
0
0
0
0
8.58598e-138
2.63121e-135
4.03261e-133
4.12117e-131
3.15944e-129
1.93813e-127
9.90995e-126
4.34417e-124
1.66665e-122
5.68492e-121
1.74558e-119
4.87371e-118
1.24763e-116
2.94877e-115
6.47304e-114
1.3265e-112
2.54901e-111
4.61107e-110
7.87957e-109
1.2759e-107
1.96313e-106
2.87732e-105
4.02641e-104
5.39059e-103
6.91778e-102
8.52438e-101
1.01023e-99
1.15314e-98
1.26954e-97
1.34978e-96
1.38756e-95
1.38068e-94
1.3312e-93
1.24487e-92
1.13014e-91
9.96895e-91
8.55118e-90
7.13835e-89
5.8034e-88
4.59813e-87
3.55287e-86
2.67886e-85
1.97219e-84
1.41848e-83
9.9726e-83
6.85692e-82
4.61317e-81
3.03826e-80
1.95975e-79
1.23857e-78
7.67286e-78
4.66113e-77
2.77771e-76
1.62444e-75
9.32609e-75
5.258e-74
2.91214e-73
1.58494e-72
8.47919e-72
4.46034e-71
2.30769e-70
1.17464e-69
5.88387e-69
2.90114e-68
1.40842e-67
6.73373e-67
3.17135e-66
1.47163e-65
6.72998e-65
3.03378e-64
1.34835e-63
5.90955e-63
2.55463e-62
1.08945e-61
4.58432e-61
1.90374e-60
7.80339e-60
3.15775e-59
1.26173e-58
4.97869e-58
1.94043e-57
7.47106e-57
2.84206e-56
1.06836e-55
3.96912e-55
1.45757e-54
5.29152e-54
1.89936e-53
6.74165e-53
2.36654e-52
8.21687e-52
2.82225e-51
9.59038e-51
3.22461e-50
1.07292e-49
3.53315e-49
1.15161e-48
3.71572e-48
1.18693e-47
3.75399e-47
1.17569e-46
3.64644e-46
1.12012e-45
3.40814e-45
1.02724e-44
3.06738e-44
9.07495e-44
2.66036e-43
7.72847e-43
2.22506e-42
6.34921e-42
1.79583e-41
5.03517e-41
1.39959e-40
3.85706e-40
1.05394e-39
2.85572e-39
7.67335e-39
2.04482e-38
5.40455e-38
1.41686e-37
3.68458e-37
9.50546e-37
2.43283e-36
6.17776e-36
1.55654e-35
3.89161e-35
9.65522e-35
2.37732e-34
5.80941e-34
1.40904e-33
3.39221e-33
8.10662e-33
1.92317e-32
4.52942e-32
1.0591e-31
2.45882e-31
5.66804e-31
1.29742e-30
2.94912e-30
6.65718e-30
1.49244e-29
3.32304e-29
7.34895e-29
1.61432e-28
3.52247e-28
7.63522e-28
1.64411e-27
3.51721e-27
7.47551e-27
1.57863e-26
3.31233e-26
6.90592e-26
1.43075e-25
2.94562e-25
6.02672e-25
1.22545e-24
2.47648e-24
4.97414e-24
9.93035e-24
1.97056e-23
3.88698e-23
7.62163e-23
1.48564e-22
2.87889e-22
5.54626e-22
1.06232e-21
2.02303e-21
3.83056e-21
7.21188e-21
1.35013e-20
2.51339e-20
4.65282e-20
8.56562e-20
1.5682e-19
2.85537e-19
5.17075e-19
9.31297e-19
1.66833e-18
2.97268e-18
5.26866e-18
9.28865e-18
1.62899e-17
2.84191e-17
4.93223e-17
8.51586e-17
1.46278e-16
2.49983e-16
4.25041e-16
7.19046e-16
1.21031e-15
2.02707e-15
3.37816e-15
5.60201e-15
9.24427e-15
1.51802e-14
2.48069e-14
4.03428e-14
6.52937e-14
1.05172e-13
1.68602e-13
2.69011e-13
4.27202e-13
6.75251e-13
1.06237e-12
1.6637e-12
2.59342e-12
4.02422e-12
6.21601e-12
9.55813e-12
1.46311e-11
2.22962e-11
3.38258e-11
5.10901e-11
7.68261e-11
1.1502e-10
1.7145e-10
2.54458e-10
3.76023e-10
5.53279e-10
8.10616e-10
1.18259e-09
1.71797e-09
2.48522e-09
3.58008e-09
5.1358e-09
7.33703e-09
1.04385e-08
1.479e-08
2.08701e-08
2.93301e-08
4.10529e-08
5.72301e-08
7.94628e-08
1.09893e-07
1.51375e-07
2.07694e-07
2.83849e-07
3.86413e-07
5.23995e-07
7.07818e-07
9.52453e-07
1.27674e-06
1.70492e-06
2.26808e-06
3.00589e-06
3.96878e-06
5.22058e-06
6.84172e-06
8.93316e-06
1.16211e-05
1.50625e-05
1.94521e-05
2.503e-05
3.20914e-05
4.09975e-05
5.21888e-05
6.61994e-05
8.36751e-05
0.000105393
0.000132285
0.000165461
0.000206244
0.000256195
0.000317156
0.000391288
0.000481116
0.000589575
0.000720069
0.000876521
0.00106344
0.00128597
0.00154997
0.00186211
0.00222986
0.00266166
0.00316692
0.00375612
0.00444087
0.00523396
0.00614945
0.00720265
0.00841023
0.00979021
0.0113619
0.0131461
0.0151649
0.0174414
0.0200003
0.0228671
0.0260685
0.029632
0.0335857
0.0379581
0.0427782
0.0480749
0.0538766
0.0602114
0.0671065
0.0745878
0.0826795
0.0914042
0.100782
0.110831
0.121565
0.132996
0.145131
0.157976
0.171529
0.185786
0.200738
0.216372
0.23267
0.249608
0.267161
0.285295
0.303973
0.323157
0.342801
0.362856
0.383273
0.403996
0.424968
0.446132
0.467427
0.488793
0.510167
0.531489
0.552698
0.573735
0.594542
0.615063
0.635245
0.655038
0.674396
0.693274
0.711634
0.72944
0.746661
0.763271
0.779247
0.794571
0.80923
0.823215
0.836519
0.849143
0.861088
0.872361
0.88297
0.892928
0.90225
0.910953
0.919056
0.92658
0.933548
0.939984
0.945911
0.951355
0.95634
0.960893
0.965037
0.968798
0.9722
0.975265
0.978016
0.980474
0.982657
0.984585
0.986274
0.98774
0.988995
0.990051
0.990917
0.991603
0.992114
0.992453
0.992624
0.992624
0.992454
0.992108
0.991581
0.990863
0.989945
0.988814
0.987457
0.985856
0.983994
0.981851
0.979406
0.976636
0.973517
0.970022
0.966127
0.961803
0.957024
0.951762
0.945989
0.939678
0.932803
0.925338
0.91726
0.908546
0.899177
0.889136
0.878409
0.866983
0.854851
0.84201
0.82846
0.814206
0.799255
0.783622
0.767326
0.750388
0.732836
0.714703
0.696025
0.676842
0.657198
0.637143
0.616727
0.596004
0.575031
0.553868
0.532573
0.511207
0.489833
0.468511
0.447302
0.426265
0.405458
0.384937
0.364755
0.344962
0.325604
0.306726
0.288366
0.27056
0.253338
0.236728
0.220752
0.205428
0.190768
0.176784
0.163478
0.150854
0.138908
0.127634
0.117023
0.107063
0.0977386
0.0890323
0.0809248
0.0733948
0.0664196
0.0599753
0.054037
0.0485793
0.0435763
0.039002
0.0348305
0.0310361
0.0275937
0.0244785
0.0216666
0.019135
0.0168616
0.0148251
0.0130055
0.0113838
0.00994202
0.00866349
0.00753253
0.0065346
0.00565622
0.004885
0.00420953
0.00361938
0.00310503
0.00265785
0.00227001
0.00193446
0.00164484
0.00139549
0.00118131
0.000997787
0.000840912
0.000707135
0.000593327
0.000496739
0.000414958
0.000345879
0.000287666
0.000238726
0.000197678
0.00016333
0.000134656
0.000110773
9.09279e-05
7.44756e-05
6.08677e-05
4.96384e-05
4.03931e-05
3.27987e-05
2.65747e-05
2.14854e-05
1.73334e-05
1.39537e-05
1.1209e-05
8.98486e-06
7.18668e-06
5.73612e-06
4.5686e-06
3.63098e-06
2.87968e-06
2.27899e-06
1.7998e-06
1.41837e-06
1.11542e-06
8.75334e-07
6.85486e-07
5.3569e-07
4.17753e-07
3.25102e-07
2.52474e-07
1.95663e-07
1.51322e-07
1.16787e-07
8.99474e-08
6.91334e-08
5.30265e-08
4.05888e-08
3.10048e-08
2.36354e-08
1.79809e-08
1.36513e-08
1.03431e-08
7.82077e-09
5.90157e-09
4.44434e-09
3.34019e-09
2.5053e-09
1.87533e-09
1.40095e-09
1.04448e-09
7.77158e-10
5.77103e-10
4.27695e-10
3.16339e-10
2.33513e-10
)
;

boundaryField
{
    sides
    {
        type            zeroGradient;
    }
    empty
    {
        type            empty;
    }
}


// ************************************************************************* //
