/*--------------------------------*- C++ -*----------------------------------*\
| =========                 |                                                 |
| \\      /  F ield         | OpenFOAM: The Open Source CFD Toolbox           |
|  \\    /   O peration     | Version:  2312                                  |
|   \\  /    A nd           | Website:  www.openfoam.com                      |
|    \\/     M anipulation  |                                                 |
\*---------------------------------------------------------------------------*/
FoamFile
{
    version     2.0;
    format      ascii;
    arch        "LSB;label=32;scalar=64";
    class       volScalarField;
    location    "3.9";
    object      T;
}
// * * * * * * * * * * * * * * * * * * * * * * * * * * * * * * * * * * * * * //

dimensions      [0 0 0 1 0 0 0];

internalField   nonuniform List<scalar> 
1000
(
3.65029e-07
3.65742e-07
3.67704e-07
3.70921e-07
3.75402e-07
3.8116e-07
3.88213e-07
3.9658e-07
4.06286e-07
4.1736e-07
4.29832e-07
4.4374e-07
4.59123e-07
4.76026e-07
4.94497e-07
5.1459e-07
5.36361e-07
5.59874e-07
5.85195e-07
6.12395e-07
6.41553e-07
6.7275e-07
7.06073e-07
7.41618e-07
7.79482e-07
8.19772e-07
8.62599e-07
9.08082e-07
9.56345e-07
1.00752e-06
1.06175e-06
1.11918e-06
1.17997e-06
1.24428e-06
1.31228e-06
1.38416e-06
1.46011e-06
1.54032e-06
1.62501e-06
1.71441e-06
1.80875e-06
1.90826e-06
2.01322e-06
2.12389e-06
2.24056e-06
2.36351e-06
2.49308e-06
2.62958e-06
2.77336e-06
2.92477e-06
3.0842e-06
3.25205e-06
3.42871e-06
3.61464e-06
3.81028e-06
4.0161e-06
4.23262e-06
4.46033e-06
4.6998e-06
4.95159e-06
5.2163e-06
5.49454e-06
5.78698e-06
6.09428e-06
6.41717e-06
6.75639e-06
7.11272e-06
7.48696e-06
7.87996e-06
8.29261e-06
8.72585e-06
9.18062e-06
9.65794e-06
1.01589e-05
1.06845e-05
1.1236e-05
1.18145e-05
1.24213e-05
1.30577e-05
1.3725e-05
1.44247e-05
1.51582e-05
1.59271e-05
1.6733e-05
1.75775e-05
1.84623e-05
1.93894e-05
2.03605e-05
2.13777e-05
2.2443e-05
2.35585e-05
2.47264e-05
2.59491e-05
2.72289e-05
2.85683e-05
2.997e-05
3.14366e-05
3.29709e-05
3.4576e-05
3.62547e-05
3.80104e-05
3.98461e-05
4.17655e-05
4.3772e-05
4.58693e-05
4.80612e-05
5.03517e-05
5.2745e-05
5.52453e-05
5.7857e-05
6.05849e-05
6.34336e-05
6.64082e-05
6.95138e-05
7.27558e-05
7.61398e-05
7.96714e-05
8.33567e-05
8.72018e-05
9.12132e-05
9.53975e-05
9.97616e-05
0.000104313
0.000109058
0.000114006
0.000119163
0.000124538
0.000130141
0.000135978
0.000142061
0.000148397
0.000154997
0.000161871
0.000169029
0.000176483
0.000184242
0.00019232
0.000200727
0.000209476
0.00021858
0.000228052
0.000237906
0.000248155
0.000258815
0.0002699
0.000281425
0.000293406
0.000305861
0.000318806
0.000332258
0.000346236
0.000360759
0.000375844
0.000391514
0.000407787
0.000424685
0.000442229
0.000460443
0.000479349
0.00049897
0.000519332
0.00054046
0.000562379
0.000585116
0.000608698
0.000633155
0.000658514
0.000684806
0.000712062
0.000740313
0.000769592
0.000799933
0.000831369
0.000863935
0.00089767
0.000932608
0.00096879
0.00100625
0.00104504
0.00108519
0.00112675
0.00116975
0.00121426
0.0012603
0.00130793
0.0013572
0.00140815
0.00146084
0.00151532
0.00157164
0.00162986
0.00169003
0.00175221
0.00181646
0.00188284
0.00195141
0.00202223
0.00209537
0.0021709
0.00224888
0.00232938
0.00241246
0.00249822
0.00258671
0.00267801
0.0027722
0.00286936
0.00296957
0.0030729
0.00317945
0.00328931
0.00340254
0.00351926
0.00363954
0.00376347
0.00389117
0.00402271
0.0041582
0.00429773
0.00444142
0.00458936
0.00474166
0.00489843
0.00505977
0.0052258
0.00539664
0.00557239
0.00575317
0.00593911
0.00613032
0.00632693
0.00652907
0.00673686
0.00695043
0.00716991
0.00739544
0.00762715
0.00786518
0.00810966
0.00836075
0.00861859
0.00888331
0.00915507
0.00943402
0.0097203
0.0100141
0.0103155
0.0106247
0.0109419
0.0112672
0.0116009
0.0119429
0.0122936
0.0126531
0.0130215
0.0133991
0.0137859
0.0141823
0.0145883
0.0150041
0.01543
0.015866
0.0163125
0.0167695
0.0172372
0.0177159
0.0182057
0.0187069
0.0192195
0.0197439
0.0202802
0.0208285
0.0213891
0.0219622
0.022548
0.0231467
0.0237584
0.0243834
0.0250219
0.0256741
0.0263401
0.0270202
0.0277146
0.0284235
0.029147
0.0298855
0.0306389
0.0314077
0.032192
0.0329919
0.0338077
0.0346396
0.0354877
0.0363523
0.0372336
0.0381317
0.0390469
0.0399793
0.0409292
0.0418966
0.0428819
0.0438851
0.0449066
0.0459463
0.0470046
0.0480816
0.0491775
0.0502924
0.0514265
0.05258
0.0537531
0.0549458
0.0561584
0.057391
0.0586437
0.0599167
0.0612101
0.0625241
0.0638588
0.0652143
0.0665907
0.0679882
0.0694068
0.0708468
0.072308
0.0737908
0.0752951
0.0768211
0.0783687
0.0799382
0.0815295
0.0831427
0.0847779
0.0864351
0.0881144
0.0898158
0.0915392
0.0932848
0.0950526
0.0968424
0.0986545
0.100489
0.102345
0.104223
0.106124
0.108046
0.10999
0.111956
0.113945
0.115954
0.117986
0.120039
0.122113
0.124209
0.126326
0.128463
0.130622
0.132802
0.135002
0.137223
0.139464
0.141725
0.144005
0.146306
0.148626
0.150965
0.153323
0.155699
0.158094
0.160507
0.162938
0.165387
0.167852
0.170335
0.172834
0.175349
0.177881
0.180428
0.18299
0.185566
0.188158
0.190763
0.193381
0.196013
0.198658
0.201315
0.203983
0.206663
0.209354
0.212056
0.214767
0.217487
0.220217
0.222955
0.2257
0.228453
0.231213
0.233979
0.23675
0.239526
0.242307
0.245092
0.24788
0.250671
0.253463
0.256257
0.259052
0.261847
0.264642
0.267435
0.270226
0.273015
0.275801
0.278583
0.281361
0.284133
0.286899
0.289659
0.292411
0.295156
0.297891
0.300618
0.303334
0.306039
0.308733
0.311414
0.314082
0.316737
0.319377
0.322002
0.324611
0.327203
0.329778
0.332334
0.334872
0.33739
0.339888
0.342365
0.34482
0.347253
0.349662
0.352047
0.354408
0.356744
0.359053
0.361335
0.363591
0.365818
0.368016
0.370184
0.372323
0.374431
0.376507
0.378551
0.380562
0.38254
0.384484
0.386393
0.388266
0.390104
0.391906
0.39367
0.395397
0.397085
0.398735
0.400345
0.401916
0.403446
0.404936
0.406384
0.40779
0.409154
0.410476
0.411754
0.412988
0.414179
0.415325
0.416426
0.417483
0.418493
0.419458
0.420377
0.421249
0.422074
0.422852
0.423583
0.424267
0.424902
0.425489
0.426029
0.426519
0.426962
0.427355
0.4277
0.427995
0.428242
0.428439
0.428587
0.428685
0.428735
0.428735
0.428685
0.428587
0.428439
0.428242
0.427995
0.4277
0.427355
0.426962
0.426519
0.426029
0.425489
0.424902
0.424267
0.423583
0.422852
0.422074
0.421249
0.420377
0.419458
0.418493
0.417483
0.416426
0.415325
0.414179
0.412988
0.411754
0.410476
0.409154
0.40779
0.406384
0.404936
0.403446
0.401916
0.400345
0.398735
0.397085
0.395397
0.39367
0.391906
0.390104
0.388266
0.386393
0.384484
0.38254
0.380562
0.378551
0.376507
0.374431
0.372323
0.370184
0.368016
0.365818
0.363591
0.361335
0.359053
0.356744
0.354408
0.352047
0.349662
0.347253
0.34482
0.342365
0.339888
0.33739
0.334872
0.332334
0.329778
0.327203
0.324611
0.322002
0.319377
0.316737
0.314082
0.311414
0.308733
0.306039
0.303334
0.300618
0.297891
0.295156
0.292411
0.289659
0.286899
0.284133
0.281361
0.278583
0.275801
0.273015
0.270226
0.267435
0.264642
0.261847
0.259052
0.256257
0.253463
0.250671
0.24788
0.245092
0.242307
0.239526
0.23675
0.233979
0.231213
0.228453
0.2257
0.222955
0.220217
0.217487
0.214767
0.212056
0.209354
0.206663
0.203983
0.201315
0.198658
0.196013
0.193381
0.190763
0.188158
0.185566
0.18299
0.180428
0.177881
0.175349
0.172834
0.170335
0.167852
0.165387
0.162938
0.160507
0.158094
0.155699
0.153323
0.150965
0.148626
0.146306
0.144005
0.141725
0.139464
0.137223
0.135002
0.132802
0.130622
0.128463
0.126326
0.124209
0.122113
0.120039
0.117986
0.115954
0.113945
0.111956
0.10999
0.108046
0.106124
0.104223
0.102345
0.100489
0.0986545
0.0968424
0.0950526
0.0932848
0.0915392
0.0898158
0.0881144
0.0864351
0.0847779
0.0831427
0.0815295
0.0799382
0.0783687
0.0768211
0.0752951
0.0737908
0.072308
0.0708468
0.0694068
0.0679882
0.0665907
0.0652143
0.0638588
0.0625241
0.0612101
0.0599167
0.0586437
0.057391
0.0561584
0.0549458
0.0537531
0.05258
0.0514265
0.0502924
0.0491775
0.0480816
0.0470046
0.0459463
0.0449066
0.0438851
0.0428819
0.0418966
0.0409292
0.0399793
0.0390469
0.0381317
0.0372336
0.0363523
0.0354877
0.0346396
0.0338077
0.0329919
0.032192
0.0314077
0.0306389
0.0298855
0.029147
0.0284235
0.0277146
0.0270202
0.0263401
0.0256741
0.0250219
0.0243834
0.0237584
0.0231467
0.022548
0.0219622
0.0213891
0.0208285
0.0202802
0.0197439
0.0192195
0.0187069
0.0182057
0.0177159
0.0172372
0.0167695
0.0163125
0.015866
0.01543
0.0150041
0.0145883
0.0141823
0.0137859
0.0133991
0.0130215
0.0126531
0.0122936
0.0119429
0.0116009
0.0112672
0.0109419
0.0106247
0.0103155
0.0100141
0.0097203
0.00943402
0.00915507
0.00888331
0.00861859
0.00836075
0.00810966
0.00786518
0.00762715
0.00739544
0.00716991
0.00695043
0.00673686
0.00652907
0.00632693
0.00613032
0.00593911
0.00575317
0.00557239
0.00539664
0.0052258
0.00505977
0.00489843
0.00474166
0.00458936
0.00444142
0.00429773
0.0041582
0.00402271
0.00389117
0.00376347
0.00363954
0.00351926
0.00340254
0.00328931
0.00317945
0.0030729
0.00296957
0.00286936
0.0027722
0.00267801
0.00258671
0.00249822
0.00241246
0.00232938
0.00224888
0.0021709
0.00209537
0.00202223
0.00195141
0.00188284
0.00181646
0.00175221
0.00169003
0.00162986
0.00157164
0.00151532
0.00146084
0.00140815
0.0013572
0.00130793
0.0012603
0.00121426
0.00116975
0.00112675
0.00108519
0.00104504
0.00100625
0.00096879
0.000932608
0.00089767
0.000863935
0.000831369
0.000799933
0.000769592
0.000740313
0.000712062
0.000684806
0.000658514
0.000633155
0.000608698
0.000585116
0.000562379
0.00054046
0.000519332
0.00049897
0.000479349
0.000460443
0.000442229
0.000424685
0.000407787
0.000391514
0.000375844
0.000360759
0.000346236
0.000332258
0.000318806
0.000305861
0.000293406
0.000281425
0.0002699
0.000258815
0.000248155
0.000237906
0.000228052
0.00021858
0.000209476
0.000200727
0.00019232
0.000184242
0.000176483
0.000169029
0.000161871
0.000154997
0.000148397
0.000142061
0.000135978
0.000130141
0.000124538
0.000119163
0.000114006
0.000109058
0.000104313
9.97616e-05
9.53975e-05
9.12132e-05
8.72018e-05
8.33567e-05
7.96714e-05
7.61398e-05
7.27558e-05
6.95138e-05
6.64082e-05
6.34336e-05
6.05849e-05
5.7857e-05
5.52453e-05
5.2745e-05
5.03517e-05
4.80612e-05
4.58693e-05
4.3772e-05
4.17655e-05
3.98461e-05
3.80104e-05
3.62547e-05
3.4576e-05
3.29709e-05
3.14366e-05
2.997e-05
2.85683e-05
2.72289e-05
2.59491e-05
2.47264e-05
2.35585e-05
2.2443e-05
2.13777e-05
2.03605e-05
1.93894e-05
1.84623e-05
1.75775e-05
1.6733e-05
1.59271e-05
1.51582e-05
1.44247e-05
1.3725e-05
1.30577e-05
1.24213e-05
1.18145e-05
1.1236e-05
1.06845e-05
1.01589e-05
9.65794e-06
9.18062e-06
8.72585e-06
8.29261e-06
7.87996e-06
7.48696e-06
7.11272e-06
6.75639e-06
6.41717e-06
6.09428e-06
5.78698e-06
5.49454e-06
5.2163e-06
4.95159e-06
4.6998e-06
4.46033e-06
4.23262e-06
4.0161e-06
3.81028e-06
3.61464e-06
3.42871e-06
3.25205e-06
3.0842e-06
2.92477e-06
2.77336e-06
2.62958e-06
2.49308e-06
2.36351e-06
2.24056e-06
2.12389e-06
2.01322e-06
1.90826e-06
1.80875e-06
1.71441e-06
1.62501e-06
1.54032e-06
1.46011e-06
1.38416e-06
1.31228e-06
1.24428e-06
1.17997e-06
1.11918e-06
1.06175e-06
1.00752e-06
9.56345e-07
9.08082e-07
8.62599e-07
8.19772e-07
7.79482e-07
7.41618e-07
7.06073e-07
6.7275e-07
6.41553e-07
6.12395e-07
5.85195e-07
5.59874e-07
5.36361e-07
5.1459e-07
4.94497e-07
4.76026e-07
4.59123e-07
4.4374e-07
4.29832e-07
4.1736e-07
4.06286e-07
3.9658e-07
3.88213e-07
3.8116e-07
3.75402e-07
3.70921e-07
3.67704e-07
3.65742e-07
3.65029e-07
)
;

boundaryField
{
    sides
    {
        type            zeroGradient;
    }
    empty
    {
        type            empty;
    }
}


// ************************************************************************* //
