/*--------------------------------*- C++ -*----------------------------------*\
| =========                 |                                                 |
| \\      /  F ield         | OpenFOAM: The Open Source CFD Toolbox           |
|  \\    /   O peration     | Version:  2312                                  |
|   \\  /    A nd           | Website:  www.openfoam.com                      |
|    \\/     M anipulation  |                                                 |
\*---------------------------------------------------------------------------*/
FoamFile
{
    version     2.0;
    format      ascii;
    arch        "LSB;label=32;scalar=64";
    class       volScalarField;
    location    "1";
    object      T;
}
// * * * * * * * * * * * * * * * * * * * * * * * * * * * * * * * * * * * * * //

dimensions      [0 0 0 1 0 0 0];

internalField   nonuniform List<scalar> 
1000
(
3.82111e-176
-2.08831e-175
1.03989e-174
-5.19557e-174
2.59133e-173
-1.29033e-172
6.41455e-172
-3.18357e-171
1.57742e-170
-7.80295e-170
3.85345e-169
-1.89985e-168
9.35111e-168
-4.59495e-167
2.25409e-166
-1.1039e-165
5.39707e-165
-2.63422e-164
1.28355e-163
-6.24357e-163
3.0319e-162
-1.46979e-161
7.11302e-161
-3.43643e-160
1.65735e-159
-7.97942e-159
3.83511e-158
-1.84006e-157
8.81317e-157
-4.21381e-156
2.01122e-155
-9.58262e-155
4.5577e-154
-2.16393e-153
1.02559e-152
-4.85216e-152
2.29153e-151
-1.0803e-150
5.0838e-150
-2.38812e-149
1.11981e-148
-5.24143e-148
2.44892e-147
-1.14212e-146
5.31696e-146
-2.47073e-145
1.14602e-144
-5.30603e-144
2.45216e-143
-1.13118e-142
5.20848e-142
-2.39381e-141
1.09815e-140
-5.02837e-140
2.29818e-139
-1.0484e-138
4.77373e-138
-2.16956e-137
9.8416e-137
-4.45594e-136
2.01368e-135
-9.08268e-135
4.08893e-134
-1.83728e-133
8.23964e-133
-3.68812e-132
1.64765e-131
-7.34655e-131
3.26933e-130
-1.45208e-129
6.43684e-129
-2.84777e-128
1.25743e-127
-5.54127e-127
2.43711e-126
-1.06975e-125
4.68624e-125
-2.04881e-124
8.93943e-124
-3.89266e-123
1.69165e-122
-7.33665e-122
3.17546e-121
-1.37162e-120
5.91254e-120
-2.54348e-119
1.09193e-118
-4.67805e-118
2.00005e-117
-8.53332e-117
3.63324e-116
-1.54371e-115
6.54531e-115
-2.76939e-114
1.1693e-113
-4.92666e-113
2.07138e-112
-8.69049e-112
3.63835e-111
-1.51998e-110
6.33634e-110
-2.63576e-109
1.09405e-108
-4.53135e-108
1.87273e-107
-7.7228e-107
3.17779e-106
-1.30474e-105
5.34522e-105
-2.18499e-104
8.91187e-104
-3.6268e-103
1.47268e-102
-5.96652e-102
2.41189e-101
-9.72782e-101
3.91463e-100
-1.57173e-99
6.29619e-99
-2.51643e-98
1.00345e-97
-3.99211e-97
1.58456e-96
-6.2749e-96
2.4791e-95
-9.77164e-95
3.84257e-94
-1.50749e-93
5.90013e-93
-2.30377e-92
8.97395e-92
-3.48731e-91
1.35194e-90
-5.22852e-90
2.01721e-89
-7.76375e-89
2.98082e-88
-1.14166e-87
4.36191e-87
-1.66244e-86
6.32037e-86
-2.39697e-85
9.06778e-85
-3.4218e-84
1.28801e-83
-4.83601e-83
1.81117e-82
-6.76594e-82
2.5211e-81
-9.37003e-81
3.47357e-80
-1.28437e-79
4.73675e-79
-1.74237e-78
6.39245e-78
-2.33913e-77
8.53689e-77
-3.10739e-76
1.12808e-75
-4.08437e-75
1.47485e-74
-5.31134e-74
1.9076e-73
-6.83273e-73
2.44072e-72
-8.69469e-72
3.08886e-71
-1.09432e-70
3.86622e-70
-1.36214e-69
4.78567e-69
-1.67666e-68
5.85764e-68
-2.04066e-67
7.08897e-67
-2.45558e-66
8.48164e-66
-2.92114e-65
1.00315e-64
-3.43494e-64
1.17274e-63
-3.99215e-63
1.35497e-62
-4.58531e-62
1.54708e-61
-5.20422e-61
1.74539e-60
-5.83605e-60
1.94548e-59
-6.4656e-59
2.1422e-58
-7.07575e-58
2.32992e-57
-7.64818e-57
2.50275e-56
-8.16417e-56
2.65482e-55
-8.60556e-55
2.7806e-54
-8.9558e-54
2.87522e-53
-9.20089e-53
2.93477e-52
-9.33033e-52
2.95658e-51
-9.33784e-51
2.9394e-50
-9.22183e-50
2.88347e-49
-8.98558e-49
2.79062e-48
-8.63714e-48
2.66408e-47
-8.18885e-47
2.50836e-46
-7.65664e-46
2.32895e-45
-7.05906e-45
2.13201e-44
-6.41622e-44
1.924e-43
-5.7486e-43
1.71134e-42
-5.07601e-42
1.50006e-41
-4.41656e-41
1.29551e-40
-3.7859e-40
1.1022e-39
-3.19668e-39
9.2359e-39
-2.65821e-38
7.62114e-38
-2.1765e-37
6.19149e-37
-1.75436e-36
4.95129e-36
-1.39182e-35
3.89671e-35
-1.08656e-34
3.01746e-34
-8.34538e-34
2.29856e-33
-6.30459e-33
1.72202e-32
-4.68368e-32
1.2685e-31
-3.42086e-31
9.18562e-31
-2.45581e-30
6.53707e-30
-1.73244e-29
4.57092e-29
-1.20063e-28
3.13947e-28
-8.17207e-28
2.11749e-27
-5.46145e-27
1.40209e-26
-3.58271e-26
9.11163e-26
-2.30629e-25
5.80962e-25
-1.4564e-24
3.63326e-24
-9.01934e-24
2.22792e-23
-5.47586e-23
1.3391e-22
-3.25809e-22
7.88649e-22
-1.89913e-21
4.5494e-21
-1.08408e-20
2.56956e-20
-6.05791e-20
1.42046e-19
-3.31252e-19
7.68221e-19
-1.77169e-18
4.06296e-18
-9.26451e-18
2.10041e-17
-4.73437e-17
1.06089e-16
-2.36319e-16
5.23266e-16
-1.15163e-15
2.51908e-15
-5.47619e-15
1.18302e-14
-2.53953e-14
5.41662e-14
-1.14785e-13
2.41651e-13
-5.05364e-13
1.04978e-12
-2.16586e-12
4.43778e-12
-9.02952e-12
1.82426e-11
-3.65922e-11
7.28668e-11
-1.44034e-10
2.82585e-10
-5.50218e-10
1.0631e-09
-2.03804e-09
3.87616e-09
-7.31284e-09
1.36839e-08
-2.53928e-08
4.67232e-08
-8.52332e-08
1.54125e-07
-2.76223e-07
4.9056e-07
-8.6317e-07
1.5045e-06
-2.59717e-06
4.43946e-06
-7.51259e-06
1.2583e-05
-2.08549e-05
3.41946e-05
-5.54516e-05
8.89115e-05
-0.000140915
0.000220687
-0.0003414
0.000521506
-0.000786306
0.0011697
-0.00171593
0.00248114
-0.00353414
0.00495595
-0.00683724
0.00927281
-0.0123521
0.016145
-0.0206826
0.0259338
-0.0317786
0.0379829
-0.0441789
0.0498584
-0.0543879
0.0570513
-0.057127
0.0539983
-0.0472884
0.0370029
-0.0236503
0.0083047
0.00742646
-0.0215573
0.0320097
-0.0370037
0.0354899
-0.0275233
0.0144617
0.00111807
-0.01584
0.0262551
-0.0297328
0.0252867
-0.0140548
-0.000795871
0.0148319
-0.0236518
0.0243609
-0.0167108
0.00341288
0.0106362
-0.0200789
0.0212042
-0.0135919
0.000506988
0.0123065
-0.0190824
0.0167237
-0.00643636
-0.00664415
0.0158687
-0.0164761
0.00823383
0.00423572
-0.013861
0.0151165
-0.00736139
-0.00458798
0.0132566
-0.013177
0.00451731
0.00684731
-0.0131533
0.0100896
3.84998e-05
-0.00979208
0.0119615
-0.00501738
-0.00556243
0.0114173
-0.00792741
-0.00192475
0.0098553
-0.00917384
0.000591373
0.00824052
-0.00942062
0.00198244
0.00706589
-0.00917805
0.00242493
0.0064939
-0.00871438
0.00208869
0.00648722
-0.00806874
0.00107044
0.00689369
-0.00713382
-0.000519158
0.00736158
-0.00557533
-0.00270711
0.00772602
-0.00359667
-0.00448372
0.00638583
0.000456934
-0.0076918
0.00657711
0.000608884
-0.00327162
-0.00360988
0.012674
-0.0141387
0.00948364
-0.00972261
0.0199558
-0.0318698
0.0355558
-0.0340058
0.0385488
-0.0512018
0.0605456
-0.0583141
0.0515352
-0.0506097
0.0516089
-0.0418491
0.0209185
-0.0026547
-0.00629968
0.0156268
-0.0317041
0.0428652
-0.0369653
0.0219124
-0.0121003
0.0041995
0.0128596
-0.0313389
0.0330938
-0.0203086
0.010531
-0.00424362
-0.0113617
0.0289317
-0.0275359
0.0110297
-0.000826618
-0.00445196
0.0184465
-0.027877
0.0138354
0.00644718
-0.0106991
0.0123339
-0.0205602
0.0121464
0.0128024
-0.0193795
0.00847651
-0.00820957
0.00425423
0.0182487
-0.0217646
-0.00120504
0.00648991
-0.00277251
0.0182233
-0.0123601
-0.0182342
0.0128963
0.0023248
0.0108654
0.00559316
-0.0282108
-0.00601514
0.013033
0.00928558
0.0220344
-0.00634325
-0.0366682
-0.0143355
0.00174276
0.0243555
0.0528059
0.0201293
-0.0303399
-0.0585975
-0.0842802
-0.0513133
0.0563912
0.182079
0.337222
0.512007
0.646182
0.756838
0.857879
0.91158
0.942549
0.979054
0.989317
0.986153
1.00061
1.00369
0.99266
1.00018
1.00648
0.995127
0.996908
1.00681
0.998654
0.994163
1.00487
1.00287
0.993578
1.00073
1.00594
0.996223
0.996023
1.00563
1.00134
0.993842
1.00126
1.00559
0.996611
0.995679
1.00485
1.00273
0.99435
0.998873
1.00593
0.999694
0.994138
1.00148
1.00561
0.997639
0.994682
1.00298
1.00508
0.996639
0.995022
1.00352
1.00504
0.99653
0.99472
1.00318
1.00568
0.997414
0.993816
1.00163
1.00667
0.999756
0.993046
0.998393
1.00675
1.00384
0.99429
0.993842
1.00351
1.008
0.999976
0.99151
0.995612
1.00665
1.00857
0.998098
0.989516
0.994954
1.00784
1.01139
1.00026
0.987586
0.989096
1.0042
1.01625
1.01103
0.992529
0.979297
0.985893
1.00827
1.02681
1.02351
0.997666
0.967404
0.956615
0.977888
1.02327
1.06778
1.08186
1.04482
0.952323
0.815833
0.656289
0.496064
0.352743
0.236275
0.149242
0.0889603
0.0500548
0.0265765
0.0133011
0.00626228
0.0027641
0.00113756
0.000432635
0.000149737
4.57969e-05
1.15587e-05
1.88384e-06
-1.89745e-07
-3.40616e-07
-1.87279e-07
-7.44472e-08
-2.33673e-08
-5.52403e-09
-6.74578e-10
1.9714e-10
1.78334e-10
7.73664e-11
2.38853e-11
5.10475e-12
3.75008e-13
-2.8782e-13
-1.80507e-13
-6.39256e-14
-1.52967e-14
-1.78565e-15
4.75668e-16
3.78736e-16
1.3697e-16
3.17e-17
3.20104e-18
-1.12953e-18
-7.60113e-19
-2.45745e-19
-4.77767e-20
-1.65557e-21
2.92896e-21
1.35914e-21
3.49478e-22
4.45672e-23
-7.11868e-24
-6.0684e-24
-1.92429e-24
-3.37709e-25
6.48379e-28
2.33516e-26
8.93925e-27
1.84375e-27
1.04264e-28
-8.17505e-29
-3.70501e-29
-8.36307e-30
-6.92192e-31
2.75686e-31
1.41624e-31
3.32299e-32
3.04515e-33
-9.44814e-34
-5.08556e-34
-1.18345e-34
-1.03987e-35
3.37013e-36
1.72572e-36
3.80377e-37
2.76899e-38
-1.22579e-38
-5.50965e-39
-1.09778e-39
-4.9995e-41
4.3496e-41
1.63563e-41
2.79478e-42
4.48339e-45
-1.44587e-43
-4.43923e-44
-6.03581e-45
4.43841e-46
4.37673e-46
1.07725e-46
1.00115e-47
-2.38017e-48
-1.18231e-48
-2.26133e-49
-7.97098e-51
8.53425e-51
2.79596e-51
3.8537e-52
-2.28137e-53
-2.42044e-53
-5.63407e-54
-4.40593e-55
1.35269e-55
5.64871e-56
9.17132e-57
-5.0217e-59
-4.17236e-58
-1.0816e-58
-1.0323e-59
1.96466e-60
9.52381e-61
1.6249e-61
1.52187e-63
-6.42456e-63
-1.69446e-63
-1.62018e-64
2.8946e-65
1.38374e-65
2.26144e-66
1.01381e-69
-9.0224e-68
-2.20705e-68
-1.79711e-69
4.31807e-70
1.73799e-70
2.48099e-71
-7.91094e-73
-1.13592e-72
-2.37158e-73
-1.26021e-74
5.96706e-75
1.85229e-75
2.05676e-76
-2.10871e-77
-1.23434e-77
-2.03457e-78
-1.29861e-80
7.02554e-80
1.6179e-80
1.10446e-81
-3.2696e-82
-1.10871e-82
-1.29078e-83
1.03054e-84
6.69478e-85
1.09444e-85
7.19189e-88
-3.55898e-87
-7.83399e-88
-4.69494e-89
1.62083e-89
4.96743e-90
5.05753e-91
-5.74962e-92
-2.84334e-92
-4.01034e-93
9.23714e-95
1.47617e-94
2.71561e-95
8.27856e-97
-6.90092e-97
-1.64917e-97
-1.14975e-98
2.82993e-99
9.1782e-100
9.46242e-101
-9.42606e-102
-4.72917e-102
-6.38926e-103
1.80624e-104
2.26433e-104
3.83269e-105
6.53766e-107
-1.00562e-106
-2.10971e-107
-1.07011e-108
4.10644e-109
1.08323e-109
8.51656e-111
-1.50897e-111
-5.23625e-112
-5.43572e-113
4.72652e-114
2.39588e-114
3.07288e-115
-1.04727e-116
-1.04069e-116
-1.59827e-117
-3.50034e-120
4.29544e-119
7.79483e-120
2.3183e-121
-1.68305e-121
-3.604e-122
-1.88339e-123
6.2389e-124
1.5909e-124
1.14108e-125
-2.17227e-126
-6.73728e-127
-6.01883e-128
7.00404e-129
2.74684e-129
2.90833e-130
-2.02953e-131
-1.08103e-131
-1.31805e-132
4.8948e-134
4.11519e-134
5.67593e-135
-7.13457e-137
-1.51776e-136
-2.34148e-137
-1.60992e-139
5.43071e-139
9.30433e-140
2.12633e-141
-1.88724e-141
-3.57558e-142
-1.29995e-143
6.37554e-144
1.33286e-144
6.39974e-146
-2.09543e-146
-4.831e-147
-2.81379e-148
6.70501e-149
1.70588e-149
1.14847e-150
-2.09017e-151
-5.87801e-152
-4.43474e-153
6.35179e-154
1.9792e-154
1.63762e-155
-1.88295e-156
-6.52011e-157
-5.82243e-158
5.44947e-159
2.10375e-159
2.0023e-160
-1.54123e-161
-6.65458e-162
-6.68204e-163
4.26521e-164
2.06541e-164
2.16916e-165
-1.15702e-166
-6.29472e-167
-6.86241e-168
3.08396e-169
1.88506e-169
2.1188e-170
-8.10326e-172
-5.55021e-172
-6.39183e-173
2.10786e-174
1.60749e-174
1.88571e-175
-5.45689e-177
-4.58177e-177
-5.44442e-178
1.41444e-179
1.28563e-179
1.53924e-180
-3.69312e-182
-3.55239e-182
-4.26315e-183
9.76245e-185
9.668e-185
1.1571e-185
-2.61998e-187
-2.59194e-187
-3.07848e-188
7.1373e-190
6.84567e-190
8.0295e-191
-1.9676e-192
-1.78122e-192
-2.05332e-193
5.46145e-195
4.56573e-195
5.14796e-196
-1.51741e-197
-1.1528e-197
-1.26527e-198
4.19647e-200
2.86676e-200
3.048e-201
-1.14968e-202
-7.02017e-203
-7.19473e-204
3.10856e-205
1.69252e-205
1.66346e-206
-8.27277e-208
-4.01654e-208
-3.76516e-209
2.16286e-210
9.37974e-211
8.33758e-212
-5.54811e-213
-2.15493e-213
-1.8047e-214
1.39526e-215
4.86913e-216
3.81409e-217
-3.43836e-218
-1.08172e-218
-7.85878e-220
8.30091e-221
2.36198e-221
1.57557e-222
-1.96304e-223
-5.06747e-224
-3.06517e-225
4.54731e-226
1.06781e-226
5.76388e-228
-1.03184e-228
-2.20906e-229
-1.04158e-230
2.29368e-231
4.48476e-232
1.79209e-233
-4.99505e-234
-8.93046e-235
-2.88869e-236
1.06577e-236
1.74327e-237
4.22398e-239
-2.22802e-239
-3.33368e-240
-5.16799e-242
4.56376e-242
6.24046e-243
3.75474e-245
-9.15951e-245
-1.14244e-245
5.05496e-248
1.80117e-247
2.043e-248
-3.28836e-250
-3.47008e-250
-3.56355e-251
1.04707e-252
6.54907e-253
6.05113e-254
-2.7139e-255
-1.21061e-255
-9.97707e-257
6.3202e-258
2.19136e-258
1.59148e-259
-1.3723e-260
-3.88318e-261
-2.4429e-262
2.82822e-263
6.73379e-264
3.57833e-265
-5.588e-266
-1.14214e-266
-4.93101e-268
1.06493e-268
1.89363e-269
6.21962e-271
-1.9653e-271
-3.0665e-272
-6.73133e-274
3.52154e-274
4.8452e-275
4.95741e-277
-6.13807e-277
-7.45952e-278
1.98742e-280
1.04203e-279
1.11698e-280
-1.92461e-282
-1.72443e-282
-1.62267e-283
5.54928e-285
2.78351e-285
2.27232e-286
-1.14885e-287
)
;

boundaryField
{
    sides
    {
        type            zeroGradient;
    }
    empty
    {
        type            empty;
    }
}


// ************************************************************************* //
