/*--------------------------------*- C++ -*----------------------------------*\
| =========                 |                                                 |
| \\      /  F ield         | OpenFOAM: The Open Source CFD Toolbox           |
|  \\    /   O peration     | Version:  2312                                  |
|   \\  /    A nd           | Website:  www.openfoam.com                      |
|    \\/     M anipulation  |                                                 |
\*---------------------------------------------------------------------------*/
FoamFile
{
    version     2.0;
    format      ascii;
    arch        "LSB;label=32;scalar=64";
    class       volScalarField;
    location    "4.7";
    object      T;
}
// * * * * * * * * * * * * * * * * * * * * * * * * * * * * * * * * * * * * * //

dimensions      [0 0 0 1 0 0 0];

internalField   nonuniform List<scalar> 
1000
(
0
0
0
0
0
0
0
0
0
0
0
0
0
0
0
0
0
0
0
0
0
0
0
0
0
0
0
0
0
0
0
0
0
0
0
0
0
0
0
0
0
0
0
0
0
0
0
0
0
0
0
0
0
0
0
0
0
0
0
0
0
0
0
0
0
0
0
0
0
0
0
0
0
0
0
0
0
0
0
0
0
0
0
0
0
0
0
0
0
0
0
0
0
0
0
0
0
0
0
0
0
0
0
0
0
0
0
0
0
0
0
0
0
0
0
0
0
0
0
0
0
0
0
0
0
0
0
0
0
0
0
0
0
0
0
0
0
0
0
0
0
0
0
0
0
0
0
0
0
0
0
0
0
0
0
0
0
0
0
0
0
0
0
0
0
0
0
0
0
0
0
0
0
0
0
0
0
0
0
0
0
0
0
0
0
0
0
0
0
0
0
0
0
0
0
0
0
0
0
0
0
0
0
0
0
0
0
0
0
0
0
0
0
0
0
0
0
0
0
0
0
0
0
0
0
0
0
0
0
0
0
0
0
0
0
0
0
0
0
0
0
0
0
0
0
0
0
0
0
0
0
0
0
0
0
0
0
0
0
0
0
0
0
0
0
0
0
0
0
0
0
0
0
0
0
0
0
0
0
0
0
0
0
0
0
0
0
0
0
0
0
0
0
0
0
0
0
0
0
0
0
0
0
0
0
0
0
0
0
0
0
0
0
0
0
0
0
0
0
0
0
0
0
0
0
0
0
0
0
0
0
0
0
0
0
0
0
0
0
0
0
0
0
0
0
0
0
0
0
0
0
0
0
0
0
0
0
0
0
0
0
0
0
0
0
0
0
0
0
0
0
0
0
0
0
0
0
0
0
0
0
0
0
0
0
0
0
0
0
0
0
0
0
0
0
0
0
0
0
0
0
0
0
0
3.05823e-165
-2.05297e-149
1.23359e-141
-7.02495e-138
-1.45285e-135
-1.37569e-133
-7.47473e-132
-1.99656e-130
4.29778e-129
8.12704e-127
5.30822e-125
2.45701e-123
9.17663e-122
2.91713e-120
8.12889e-119
2.02391e-117
4.56381e-116
9.41658e-115
1.79229e-113
3.16769e-112
5.22739e-111
8.09218e-110
1.17987e-108
1.62597e-107
2.12445e-106
2.63888e-105
3.1239e-104
3.53209e-103
3.82196e-102
3.96496e-101
3.95002e-100
3.78457e-99
3.49205e-98
3.10696e-97
2.66856e-96
2.21494e-95
1.7783e-94
1.38227e-93
1.04105e-92
7.60261e-92
5.387e-91
3.70579e-90
2.47622e-89
1.60791e-88
1.01498e-87
6.23002e-87
3.71909e-86
2.15935e-85
1.2193e-84
6.69406e-84
3.57147e-83
1.8503e-82
9.29732e-82
4.52284e-81
2.12439e-80
9.59485e-80
4.13976e-79
1.68746e-78
6.36583e-78
2.12484e-77
5.49815e-77
3.89689e-77
-8.34925e-76
-8.40954e-75
-5.82326e-74
-3.46941e-73
-1.89505e-72
-9.75152e-72
-4.79513e-71
-2.27235e-70
-1.04345e-69
-4.66042e-69
-2.03007e-68
-8.6421e-68
-3.6011e-67
-1.47065e-66
-5.89233e-66
-2.31815e-65
-8.96163e-65
-3.4064e-64
-1.27381e-63
-4.68842e-63
-1.69921e-62
-6.06648e-62
-2.13429e-61
-7.40191e-61
-2.53129e-60
-8.53842e-60
-2.84166e-59
-9.33347e-59
-3.02624e-58
-9.68858e-58
-3.06352e-57
-9.56948e-57
-2.95368e-56
-9.01035e-56
-2.71719e-55
-8.10194e-55
-2.38912e-54
-6.9687e-54
-2.011e-53
-5.74242e-53
-1.62282e-52
-4.53951e-52
-1.25709e-51
-3.44666e-51
-9.35738e-51
-2.51578e-50
-6.69872e-50
-1.7666e-49
-4.6146e-49
-1.19398e-48
-3.06015e-48
-7.76918e-48
-1.9539e-47
-4.86773e-47
-1.2013e-46
-2.93682e-46
-7.11232e-46
-1.70631e-45
-4.05537e-45
-9.54866e-45
-2.2275e-44
-5.14852e-44
-1.17917e-43
-2.67638e-43
-6.02071e-43
-1.34259e-42
-2.96833e-42
-6.50778e-42
-1.41514e-41
-3.05284e-41
-6.53507e-41
-1.38847e-40
-2.92857e-40
-6.13333e-40
-1.27566e-39
-2.63525e-39
-5.40749e-39
-1.10219e-38
-2.23144e-38
-4.48658e-38
-8.95685e-38
-1.77489e-37
-3.48978e-37
-6.80505e-37
-1.31534e-36
-2.51857e-36
-4.77398e-36
-8.95152e-36
-1.65901e-35
-3.03633e-35
-5.48246e-35
-9.75576e-35
-1.70876e-34
-2.94195e-34
-4.97081e-34
-8.2267e-34
-1.33048e-33
-2.09643e-33
-3.20586e-33
-4.73223e-33
-6.6905e-33
-8.95046e-33
-1.10946e-32
-1.22146e-32
-1.06689e-32
-3.89722e-33
1.14765e-32
3.87782e-32
7.88224e-32
1.24588e-31
1.51455e-31
1.01832e-31
-1.34596e-31
-7.36601e-31
-1.93781e-30
-3.92264e-30
-6.50105e-30
-8.30451e-30
-5.02723e-30
1.41194e-29
7.31203e-29
2.21214e-28
5.53542e-28
1.24492e-27
2.60257e-27
5.14453e-27
9.7096e-27
1.76013e-26
3.07584e-26
5.19263e-26
8.47707e-26
1.33827e-25
2.04106e-25
3.00108e-25
4.23895e-25
5.71898e-25
7.30216e-25
8.68633e-25
9.34539e-25
8.49849e-25
5.17277e-25
-1.52475e-25
-1.17341e-24
-2.34721e-24
-3.01431e-24
-1.6375e-24
4.84739e-24
2.19783e-23
5.90521e-23
1.30723e-22
2.58756e-22
4.73549e-22
8.14666e-22
1.32909e-21
2.06526e-21
3.05997e-21
4.31461e-21
5.75636e-21
7.18008e-21
8.16801e-21
7.98784e-21
5.47685e-21
-1.06872e-21
-1.39619e-20
-3.60897e-20
-7.06811e-20
-1.20754e-19
-1.88082e-19
-2.71505e-19
-3.64429e-19
-4.51421e-19
-5.03983e-19
-4.75856e-19
-2.98629e-19
1.2091e-19
8.99437e-19
2.16859e-18
4.05504e-18
6.6442e-18
9.9221e-18
1.36915e-17
1.7461e-17
2.03132e-17
2.07667e-17
1.66209e-17
4.80343e-18
-1.87086e-17
-5.88226e-17
-1.20915e-16
-2.09675e-16
-3.26607e-16
-4.65903e-16
-6.09844e-16
-7.27184e-16
-7.76562e-16
-6.84165e-16
-1.11227e-16
1.88598e-15
5.5854e-15
9.16538e-15
9.09109e-15
-3.07585e-15
-2.72196e-14
-4.27177e-14
-2.19916e-14
4.84893e-14
1.21897e-13
1.08144e-13
-5.12739e-14
-2.94215e-13
-3.66622e-13
-5.91421e-14
5.90346e-13
1.04659e-12
6.25274e-13
-8.98089e-13
-2.63721e-12
-2.58778e-12
3.75865e-13
5.48908e-12
8.2011e-12
4.03054e-12
-8.19155e-12
-2.1163e-11
-2.03413e-11
2.07676e-12
4.13899e-11
6.57562e-11
4.06845e-11
-4.68859e-11
-1.58547e-10
-1.83639e-10
-5.34488e-11
2.40804e-10
5.2378e-10
4.96898e-10
-1.47289e-11
-9.32774e-10
-1.64104e-09
-1.33455e-09
4.01525e-10
3.16947e-09
5.0314e-09
3.79508e-09
-1.64454e-09
-9.95018e-09
-1.54178e-08
-1.19371e-08
3.7827e-09
2.88461e-08
4.76281e-08
4.1453e-08
-9.0395e-10
-7.55186e-08
-1.4578e-07
-1.47595e-07
-5.09139e-08
1.58558e-07
4.08634e-07
5.23777e-07
3.61857e-07
-1.63034e-07
-9.67912e-07
-1.67798e-06
-1.69172e-06
-7.23952e-07
1.41997e-06
4.22147e-06
6.23313e-06
5.77253e-06
1.77036e-06
-6.11672e-06
-1.60856e-05
-2.33895e-05
-2.24016e-05
-9.74974e-06
1.69394e-05
5.34505e-05
8.73197e-05
9.69604e-05
7.01433e-05
-5.91342e-06
-0.00013187
-0.000285083
-0.000411761
-0.000430144
-0.000305747
1.71949e-05
0.000552327
0.0012375
0.0019138
0.00229494
0.00214733
0.0012736
-0.000551002
-0.00341172
-0.00714956
-0.0112977
-0.0149663
-0.0167704
-0.0157376
-0.0108466
-0.000596099
0.0163763
0.0411439
0.0743792
0.116263
0.166439
0.224023
0.287662
0.355643
0.426029
0.496814
0.566069
0.63207
0.693403
0.749018
0.798258
0.84084
0.876822
0.906533
0.930508
0.949413
0.963974
0.974926
0.982967
0.988723
0.992737
0.995461
0.997256
0.998403
0.99911
0.999529
0.999767
0.999895
0.999959
0.999988
0.999999
1
1
1
1
1
1
1
1
1
1
1
1
1
1
1
1
1
1
1
1
1
0.999999
1
1
1
1
1
1
0.999999
0.999996
0.999994
0.999994
0.999998
1.00001
1.00002
1.00002
1.00002
1.00001
0.999983
0.999947
0.999913
0.999903
0.99993
1.00001
1.00013
1.00029
1.00041
1.00043
1.00031
0.999982
0.999447
0.998762
0.998086
0.997706
0.997855
0.99873
1.00056
1.00342
1.00716
1.0113
1.01497
1.01676
1.01573
1.01083
1.00057
0.983583
0.958804
0.925558
0.883664
0.833479
0.775889
0.712247
0.644265
0.573879
0.503098
0.433849
0.367855
0.306531
0.250924
0.201693
0.159119
0.123145
0.0934406
0.0694714
0.0505724
0.0360152
0.0250657
0.0170279
0.0112736
0.00726042
0.00453727
0.00274266
0.00159665
0.000889746
0.000470343
0.000232492
0.000104759
4.08025e-05
1.1851e-05
1.25212e-06
5.1374e-17
5.07804e-17
5.02846e-17
4.92583e-17
4.77858e-17
4.59552e-17
4.38465e-17
4.15318e-17
3.90754e-17
3.65341e-17
3.39567e-17
3.13853e-17
2.8855e-17
2.63944e-17
2.40266e-17
2.17691e-17
1.96349e-17
1.76327e-17
1.57678e-17
1.40421e-17
1.24553e-17
1.10046e-17
9.68584e-18
8.49328e-18
7.42032e-18
6.45966e-18
5.60359e-18
4.84416e-18
4.17341e-18
3.58352e-18
3.06687e-18
2.61619e-18
2.22461e-18
1.88568e-18
1.59341e-18
1.34232e-18
1.12737e-18
9.44004e-19
7.88132e-19
6.56078e-19
5.44576e-19
4.50737e-19
3.72018e-19
3.06193e-19
2.51321e-19
2.05722e-19
1.67943e-19
1.36737e-19
1.11036e-19
8.99317e-20
7.26508e-20
5.85409e-20
4.70524e-20
3.77241e-20
3.01704e-20
2.40703e-20
1.9157e-20
1.52101e-20
1.20477e-20
9.52041e-21
7.50575e-21
5.90378e-21
4.63311e-21
3.62769e-21
2.83409e-21
2.20917e-21
1.71825e-21
1.33351e-21
1.03267e-21
7.97977e-22
6.1531e-22
4.73453e-22
3.63535e-22
2.78554e-22
2.12997e-22
1.62533e-22
1.23772e-22
9.40638e-23
7.13419e-23
5.40002e-23
4.07924e-23
3.0754e-23
2.31401e-23
1.73771e-23
1.30239e-23
9.74224e-24
7.27337e-24
5.4197e-24
4.03069e-24
2.99194e-24
2.21666e-24
1.63915e-24
1.20981e-24
8.91235e-25
6.55316e-25
4.80943e-25
)
;

boundaryField
{
    sides
    {
        type            zeroGradient;
    }
    empty
    {
        type            empty;
    }
}


// ************************************************************************* //
