/*--------------------------------*- C++ -*----------------------------------*\
| =========                 |                                                 |
| \\      /  F ield         | OpenFOAM: The Open Source CFD Toolbox           |
|  \\    /   O peration     | Version:  2312                                  |
|   \\  /    A nd           | Website:  www.openfoam.com                      |
|    \\/     M anipulation  |                                                 |
\*---------------------------------------------------------------------------*/
FoamFile
{
    version     2.0;
    format      ascii;
    arch        "LSB;label=32;scalar=64";
    class       volScalarField;
    location    "0.2";
    object      T;
}
// * * * * * * * * * * * * * * * * * * * * * * * * * * * * * * * * * * * * * //

dimensions      [0 0 0 1 0 0 0];

internalField   nonuniform List<scalar> 
1000
(
0
0
0
0
0
0
0
0
0
0
0
0
0
0
0
0
0
0
0
0
0
0
0
0
0
0
0
0
0
0
0
0
0
0
0
0
0
0
0
0
0
0
0
0
0
0
0
0
0
0
0
0
0
0
0
0
0
0
0
0
0
0
0
0
0
0
0
0
0
0
0
0
0
0
0
0
0
0
0
0
0
0
0
0
0
0
0
0
0
0
0
0
0
0
0
0
0
0
0
0
0
0
0
0
0
0
0
0
0
0
0
0
0
0
0
0
0
0
0
0
0
0
0
0
0
0
0
0
0
0
0
0
0
0
0
0
0
0
0
0
0
0
0
0
0
0
0
0
0
0
0
0
0
0
0
0
0
0
0
0
0
0
0
0
0
0
0
0
0
0
0
0
0
0
0
0
0
0
0
0
0
0
0
0
0
0
0
0
0
0
0
0
0
0
0
0
0
0
0
0
0
0
0
0
0
0
0
0
0
0
0
0
0
0
0
0
0
0
0
0
0
0
0
0
0
0
0
0
0
0
0
0
0
0
0
0
0
0
0
0
0
0
0
0
0
0
0
0
0
0
0
0
0
0
0
0
0
0
0
0
0
-2.47033e-323
2.71637e-320
-2.3479e-317
1.87466e-314
-1.38952e-311
9.60352e-309
-6.21305e-306
3.77556e-303
-2.16166e-300
1.16928e-297
-5.99023e-295
2.91298e-292
-1.34737e-289
5.93873e-287
-2.49864e-284
1.00507e-281
-3.87081e-279
1.42922e-276
-5.06559e-274
1.72542e-271
-5.65408e-269
1.7843e-266
-5.4278e-264
1.59298e-261
-4.51428e-259
1.23622e-256
-3.27383e-254
8.39005e-252
-2.08213e-249
5.00675e-247
-1.16724e-244
2.63978e-242
-5.7943e-240
1.23504e-237
-2.55748e-235
5.14744e-233
-1.00741e-230
1.91795e-228
-3.55344e-226
6.40924e-224
-1.12581e-221
1.9265e-219
-3.21263e-217
5.22246e-215
-8.27828e-213
1.27991e-210
-1.93068e-208
2.84212e-206
-4.08402e-204
5.7299e-202
-7.85088e-200
1.05074e-197
-1.37395e-195
1.75561e-193
-2.19256e-191
2.67682e-189
-3.19526e-187
3.7298e-185
-4.25819e-183
4.75545e-181
-5.19574e-179
5.5546e-177
-5.81118e-175
5.95027e-173
-5.96379e-171
5.85153e-169
-5.62115e-167
5.28731e-165
-4.87011e-163
4.39317e-161
-3.88141e-159
3.35899e-157
-2.84754e-155
2.36484e-153
-1.92413e-151
1.5339e-149
-1.19815e-147
9.17067e-146
-6.87842e-144
5.05584e-142
-3.64193e-140
2.5711e-138
-1.77897e-136
1.20641e-134
-8.01872e-133
5.22407e-131
-3.3359e-129
2.08795e-127
-1.28096e-125
7.70302e-124
-4.54039e-122
2.6232e-120
-1.48549e-118
8.24529e-117
-4.48569e-115
2.39183e-113
-1.24997e-111
6.40207e-110
-3.21353e-108
1.58076e-106
-7.61993e-105
3.59931e-103
-1.6659e-101
7.55461e-100
-3.35648e-98
1.46095e-96
-6.22928e-95
2.60169e-93
-1.06428e-91
4.26381e-90
-1.6728e-88
6.4262e-87
-2.41703e-85
8.8998e-84
-3.20775e-82
1.13159e-80
-3.90657e-79
1.31965e-77
-4.36131e-76
1.40997e-74
-4.4583e-73
1.37856e-71
-4.16781e-70
1.23179e-68
-3.5582e-67
1.0044e-65
-2.77001e-64
7.46202e-63
-1.96308e-61
5.04224e-60
-1.26418e-58
3.09299e-57
-7.38282e-56
1.71876e-54
-3.90147e-53
8.63234e-52
-1.86113e-50
3.9086e-49
-7.993e-48
1.59103e-46
-3.08145e-45
5.80442e-44
-1.06292e-42
1.89136e-41
-3.26868e-40
5.48363e-39
-8.92533e-38
1.4086e-36
-2.15424e-35
3.19048e-34
-4.57269e-33
6.33749e-32
-8.48688e-31
1.09722e-29
-1.36822e-28
1.64402e-27
-1.90146e-26
2.11441e-25
-2.25774e-24
2.31175e-23
-2.26643e-22
2.12401e-21
-1.89926e-20
1.6171e-19
-1.30801e-18
1.00248e-17
-7.25808e-17
4.94705e-16
-3.16133e-15
1.88479e-14
-1.04212e-13
5.30329e-13
-2.45946e-12
1.02536e-11
-3.76615e-11
1.17887e-10
-2.94514e-10
4.88217e-10
-2.03168e-11
-3.05714e-09
1.02647e-08
-1.17641e-08
-3.10254e-08
1.43089e-07
-1.09196e-07
-6.3432e-07
1.51094e-06
1.83218e-06
-9.64815e-06
-4.84675e-06
5.10409e-05
2.89859e-05
-0.000242186
-0.00030139
0.00085921
0.00244924
-0.000161817
-0.0110223
-0.0220673
-0.00584043
0.0738712
0.235789
0.460529
0.695802
0.885259
0.998301
1.03968
1.03683
1.01915
1.00461
0.998145
0.99739
0.998632
0.999712
1.00013
1.00015
1.00006
1
0.999991
0.999994
0.999999
1
1
1
1
1
1
1
1
1
1
1
1
1
1
1
1
1
1
1
1
1
1
1
1
1
1
1
1
1
1
1
1
1
1
1
1
1
1
1
1
1
1
1
1
1
1
1
1
1
1
1
1
1
1
1
1
1
1
1
1
1
1
1
1
1
0.999998
0.999998
1.00001
1
0.999949
0.999971
1.00024
1.0003
0.999141
0.997551
1.00016
1.01102
1.02207
1.00584
0.926129
0.764211
0.539471
0.304198
0.114741
0.00169878
-0.0396849
-0.0368281
-0.0191522
-0.00460611
0.00185543
0.00260981
0.00136785
0.000288492
-0.000131131
-0.000145825
-5.94638e-05
-4.53986e-06
9.15585e-06
5.79888e-06
1.35982e-06
-3.31417e-07
-3.93747e-07
-1.33428e-07
6.78635e-10
2.08391e-08
9.05748e-09
8.64082e-10
-9.11477e-10
-4.89622e-10
-7.40667e-11
3.43671e-11
2.23874e-11
4.13336e-12
-1.16201e-12
-8.95508e-13
-1.81711e-13
3.67203e-14
3.19918e-14
6.69532e-15
-1.12653e-15
-1.03365e-15
-2.12541e-16
3.4253e-17
3.04139e-17
5.88747e-18
-1.02641e-18
-8.1731e-19
-1.42839e-19
2.96025e-20
2.00617e-20
3.02231e-21
-8.00897e-22
-4.4904e-22
-5.49245e-23
1.99507e-23
9.13845e-24
8.24901e-25
-4.52639e-25
-1.68417e-25
-9.13565e-27
9.30177e-27
2.79535e-27
3.61097e-29
-1.72691e-28
-4.14483e-29
1.52553e-30
2.89245e-30
5.41786e-31
-5.50751e-32
-4.36495e-32
-6.08896e-33
1.20481e-33
5.92245e-34
5.55613e-35
-2.08703e-35
-7.19712e-36
-3.39825e-37
3.06948e-37
7.77783e-38
-3.51549e-40
-3.94147e-39
-7.37408e-40
5.0808e-41
4.47587e-41
5.96312e-42
-9.73707e-43
-4.51817e-43
-3.83326e-44
1.32016e-44
4.05263e-45
1.48722e-46
-1.47175e-46
-3.2088e-47
5.49566e-49
1.41526e-48
2.20542e-49
-1.9163e-50
-1.19735e-50
-1.26378e-51
2.51068e-52
8.98146e-53
5.35384e-54
-2.46183e-54
-5.97241e-55
-7.31817e-57
2.02209e-56
3.49049e-57
-1.52579e-58
-1.447e-58
-1.75158e-59
2.14633e-60
9.17306e-61
7.09659e-62
-1.89702e-62
-5.18339e-63
-1.84452e-64
1.35132e-64
2.60722e-65
-2.49565e-67
-8.296e-67
-1.15543e-67
7.59464e-69
4.51099e-69
4.39149e-70
-6.5682e-71
-2.20036e-71
-1.33005e-72
4.20596e-73
9.67872e-74
2.35572e-75
-2.27039e-75
-3.83832e-76
5.73003e-78
1.08081e-77
1.36355e-78
-8.58212e-80
-4.63443e-80
-4.26666e-81
5.5782e-82
1.81063e-82
1.12841e-83
-2.80056e-84
-6.48846e-85
-2.22318e-86
1.20807e-86
2.1407e-87
1.25103e-89
-4.66206e-89
-6.51252e-90
1.62776e-91
1.64273e-91
1.82599e-92
-1.11177e-93
-5.35073e-94
-4.70396e-95
4.98184e-96
1.62484e-96
1.10559e-97
-1.85069e-98
-4.63021e-99
-2.33694e-100
6.09249e-101
1.24506e-101
4.307e-103
-1.83044e-103
-3.17529e-104
-6.3845e-106
5.10111e-106
7.71805e-107
5.36277e-109
-1.33227e-108
-1.79681e-109
8.53301e-112
3.28437e-111
4.02643e-112
-5.91021e-114
-7.68298e-114
-8.7275e-115
1.95546e-116
1.71212e-116
1.83821e-117
-5.04548e-119
-3.64509e-119
-3.77663e-120
1.10994e-121
7.42795e-122
7.58913e-123
-2.1256e-124
-1.45007e-124
-1.49339e-125
3.48859e-127
2.71123e-127
2.8763e-128
-4.54035e-130
-4.84772e-130
-5.41094e-131
3.15123e-133
8.26323e-133
9.90827e-134
5.86887e-136
-1.3357e-135
-1.75822e-136
-3.32878e-138
2.02995e-138
3.00747e-139
9.88377e-141
-2.85897e-141
-4.92873e-142
-2.34744e-143
3.63326e-144
7.68286e-145
4.87478e-146
-3.92651e-147
-1.12865e-147
-9.14208e-149
2.97592e-150
1.54243e-150
1.56901e-151
3.64378e-154
-1.92044e-153
-2.47395e-154
-7.52422e-156
2.093e-156
3.57378e-157
1.9859e-158
-1.80375e-159
-4.68164e-160
-3.79495e-161
7.41836e-163
5.43744e-163
6.06008e-164
1.3662e-165
-5.31551e-166
-8.38133e-167
-4.59878e-168
3.72462e-169
1.00286e-169
8.64535e-171
-2.27e-173
-1.00213e-172
-1.2655e-173
-5.14728e-175
7.39889e-176
1.52492e-176
1.15936e-177
-1.67962e-179
-1.48181e-179
-1.74158e-180
-6.62007e-182
1.01326e-182
2.02991e-183
1.56605e-184
-1.13451e-186
-1.8072e-186
-2.24616e-187
-1.0445e-188
9.81352e-190
2.37905e-190
2.10956e-191
3.14615e-193
-1.76209e-193
-2.65003e-194
-1.69741e-195
4.59764e-197
2.33693e-197
2.63424e-198
1.13649e-199
-1.14336e-200
-2.6644e-201
-2.40747e-202
-5.53725e-204
1.65625e-204
2.76602e-205
2.0674e-206
4.45621e-209
-1.97398e-208
-2.69838e-209
-1.70224e-210
3.37656e-212
2.11191e-212
2.52636e-213
1.37431e-214
-5.76946e-216
-2.10572e-216
-2.30526e-217
-1.11672e-218
6.83084e-220
1.99555e-220
2.07297e-221
9.38061e-223
-6.79647e-224
-1.81663e-224
-1.84968e-225
-8.30134e-227
5.95054e-228
1.59581e-228
1.64165e-229
7.75405e-231
-4.57291e-232
-1.35196e-232
-1.44651e-233
-7.52841e-235
2.91547e-236
1.09835e-236
1.25813e-237
7.41953e-239
-1.19534e-240
-8.45269e-241
-1.07059e-241
-7.25421e-243
-4.05733e-245
6.02085e-245
8.80719e-246
6.90742e-247
1.74259e-248
-3.78253e-249
-6.89409e-250
-6.31165e-251
-2.7109e-252
1.83227e-253
5.01699e-254
5.45989e-255
3.25352e-256
-2.54955e-258
-3.25808e-258
-4.40137e-259
-3.36591e-260
-8.88725e-262
1.71377e-262
3.22965e-263
3.0968e-264
1.57659e-265
-4.72644e-267
-2.06336e-267
-2.54124e-268
-1.83412e-269
-4.05842e-271
1.02232e-271
1.82508e-272
1.7344e-273
9.06923e-275
-2.03287e-276
-1.08272e-276
-1.38745e-277
-1.06594e-278
-3.39107e-280
4.32488e-281
9.20543e-282
9.61732e-283
6.01478e-284
4.43013e-286
-4.54096e-286
-6.99306e-287
-6.2831e-288
-3.15213e-289
7.94894e-291
3.86567e-291
4.97035e-292
3.96217e-293
1.54947e-294
-1.11623e-295
-2.96067e-296
-3.3935e-297
-2.46101e-298
-7.2735e-300
1.02457e-300
2.12733e-301
2.26434e-302
1.53316e-303
3.41738e-305
-7.94973e-306
-1.46459e-306
-1.49366e-307
-9.72456e-309
-1.78312e-310
5.56899e-311
9.76727e-312
9.80565e-313
6.33875e-314
1.16788e-315
-3.59622e-316
-6.33687e-317
-6.42033e-318
-4.25198e-319
-9.56511e-321
2.13436e-321
4.05134e-322
3.95253e-323
0
0
0
0
0
0
0
0
0
0
0
0
0
0
0
0
0
0
0
0
0
0
0
0
0
0
0
0
0
0
0
0
0
0
0
0
0
0
0
0
0
0
0
0
0
0
0
0
0
0
)
;

boundaryField
{
    sides
    {
        type            zeroGradient;
    }
    empty
    {
        type            empty;
    }
}


// ************************************************************************* //
