/*--------------------------------*- C++ -*----------------------------------*\
| =========                 |                                                 |
| \\      /  F ield         | OpenFOAM: The Open Source CFD Toolbox           |
|  \\    /   O peration     | Version:  2312                                  |
|   \\  /    A nd           | Website:  www.openfoam.com                      |
|    \\/     M anipulation  |                                                 |
\*---------------------------------------------------------------------------*/
FoamFile
{
    version     2.0;
    format      ascii;
    arch        "LSB;label=32;scalar=64";
    class       volScalarField;
    location    "4.7";
    object      T;
}
// * * * * * * * * * * * * * * * * * * * * * * * * * * * * * * * * * * * * * //

dimensions      [0 0 0 1 0 0 0];

internalField   nonuniform List<scalar> 
1000
(
0.520754
0.549491
0.537273
0.545724
0.527229
0.512188
0.498116
0.472366
0.473825
0.456258
0.475593
0.47859
0.506889
0.529461
0.552213
0.581515
0.587357
0.606055
0.592162
0.587027
0.558222
0.525918
0.489536
0.437443
0.398489
0.340594
0.300569
0.250615
0.209943
0.175351
0.136442
0.116232
0.0839831
0.0716684
0.050671
0.0399693
0.0307441
0.0200909
0.017784
0.0105557
0.00763715
0.00833361
-0.000596365
0.00925527
-0.00595313
0.00991914
-0.00806428
0.00946848
-0.00854344
0.00952367
-0.0101313
0.0121469
-0.0144738
0.0175769
-0.020713
0.0237846
-0.0263175
0.0282174
-0.0293855
0.0299661
-0.0301423
0.0301502
-0.0301417
0.030154
-0.0300684
0.0296442
-0.0285797
0.0266038
-0.0235612
0.0194709
-0.0145391
0.00912095
-0.0036457
-0.00147561
0.00592977
-0.00954632
0.0122957
-0.0142448
0.0154881
-0.0160811
0.0160015
-0.0151543
0.0134201
-0.01073
0.00714149
-0.00288312
-0.00164885
0.00594854
-0.00949769
0.0118744
-0.0128404
0.012382
-0.0106931
0.00811066
-0.00502672
0.00180623
0.00126283
-0.00397756
0.0061938
-0.00778718
0.00862756
-0.00858564
0.00757464
-0.00561149
0.00286981
0.000304449
-0.00343194
0.00599073
-0.00753527
0.00780689
-0.00679955
0.00475892
-0.00211544
-0.000625388
0.00299964
-0.00467313
0.00548026
-0.00541342
0.00458066
-0.00315782
0.00135586
0.000590432
-0.00242211
0.00386364
-0.00465439
0.00460637
-0.00367185
0.00199185
0.000103444
-0.00215611
0.00369332
-0.00435798
0.00401276
-0.00277975
0.001001
0.000865823
-0.00237928
0.00322837
-0.00329486
0.00265234
-0.0015152
0.000165506
0.00111419
-0.00208633
0.00258256
-0.00251742
0.00190116
-0.000851415
-0.000408418
0.00157953
-0.00235367
0.00250278
-0.00196251
0.000872859
0.000449475
-0.00160591
0.00224754
-0.002194
0.00149283
-0.000396089
-0.000734812
0.00155654
-0.00185345
0.00159129
-0.000903701
2.79273e-05
0.000778202
-0.0013071
0.00144341
-0.00117665
0.000593215
0.000144622
-0.000831483
0.00126532
-0.00130448
0.000921043
-0.000226828
-0.000548573
0.00113117
-0.00130519
0.00100303
-0.000340136
-0.000426441
0.0010016
-0.0011733
0.000896951
-0.000306063
-0.000352706
0.000826825
-0.000957601
0.000730885
-0.000264411
-0.000252864
0.00063697
-0.000769531
0.000626173
-0.000272619
-0.000162339
0.000526978
-0.000692295
0.000595072
-0.000266052
-0.000171629
0.000542196
-0.000687115
0.000537737
-0.000154441
-0.000293094
0.000601463
-0.000630621
0.000372972
4.29467e-05
-0.00041742
0.000579124
-0.000466874
0.000152209
0.00020495
-0.000439669
0.000458969
-0.000275734
-1.02748e-05
0.000266838
-0.000388678
0.00033625
-0.000143459
-0.000101977
0.000294678
-0.000352305
0.000249005
-2.95519e-05
-0.000205196
0.000341321
-0.000307718
0.000116975
0.000134668
-0.00031445
0.000325169
-0.000161449
-8.495e-05
0.000276687
-0.000309856
0.000172958
4.9615e-05
-0.000230298
0.000273361
-0.000166419
-1.9906e-05
0.000178986
-0.000229763
0.00015667
-9.48754e-06
-0.000130163
0.000192877
-0.000153189
3.71175e-05
9.36032e-05
-0.000171708
0.000156653
-5.57536e-05
-7.68423e-05
0.000166533
-0.000159679
5.75669e-05
8.00706e-05
-0.000168778
0.000152322
-4.06472e-05
-9.45492e-05
0.000166192
-0.000129671
1.21854e-05
0.000106982
-0.00015103
9.6391e-05
1.50071e-05
-0.000107984
0.000125637
-6.39868e-05
-3.11923e-05
9.85339e-05
-0.000100296
4.18118e-05
3.69921e-05
-8.83105e-05
8.38674e-05
-2.8947e-05
-4.21617e-05
8.59321e-05
-7.48679e-05
1.50636e-05
5.54057e-05
-8.9313e-05
6.21029e-05
8.9008e-06
-7.40908e-05
8.62376e-05
-3.59387e-05
-3.98856e-05
8.49467e-05
-6.63397e-05
-3.47302e-07
6.37105e-05
-7.68276e-05
3.28262e-05
3.20541e-05
-6.86349e-05
5.26022e-05
-2.91052e-07
-4.73631e-05
5.70921e-05
-2.59985e-05
-2.02265e-05
4.84737e-05
-4.12291e-05
6.18704e-06
3.12306e-05
-4.54533e-05
2.72253e-05
1.04328e-05
-4.05308e-05
4.0561e-05
-9.5208e-06
-2.95559e-05
4.59141e-05
-2.55696e-05
-1.58364e-05
4.44283e-05
-3.61397e-05
-2.18733e-06
3.79787e-05
-4.09442e-05
9.42685e-06
2.85898e-05
-4.06146e-05
1.79604e-05
1.80442e-05
-3.63064e-05
2.3163e-05
7.68733e-06
-2.9366e-05
2.5361e-05
-1.60964e-06
-2.10936e-05
2.52169e-05
-9.38536e-06
-1.26028e-05
2.35151e-05
-1.54754e-05
-4.7558e-06
2.09953e-05
-1.98943e-05
1.85311e-06
1.82433e-05
-2.27407e-05
6.88757e-06
1.56341e-05
-2.41404e-05
1.02487e-05
1.33245e-05
-2.42282e-05
1.20487e-05
1.12867e-05
-2.31622e-05
1.25761e-05
9.37356e-06
-2.11543e-05
1.22466e-05
7.40489e-06
-1.84969e-05
1.15343e-05
5.25657e-06
-1.55674e-05
1.08848e-05
2.93215e-06
-1.27963e-05
1.06222e-05
5.94898e-07
-1.05955e-05
1.08714e-05
-1.45618e-06
-9.26228e-06
1.15227e-05
-2.8686e-06
-8.88731e-06
1.22627e-05
-3.35917e-06
-9.30496e-06
1.26759e-05
-2.8382e-06
-1.01205e-05
1.23987e-05
-1.48387e-06
-1.08255e-05
1.12748e-05
2.78375e-07
-1.09759e-05
9.44803e-06
1.9058e-06
-1.03721e-05
7.33677e-06
2.9442e-06
-9.15731e-06
5.47543e-06
3.2277e-06
-7.76926e-06
4.27374e-06
2.97034e-06
-6.7384e-06
3.80086e-06
2.67764e-06
-6.40737e-06
3.71754e-06
2.88802e-06
-6.71174e-06
3.42585e-06
3.85642e-06
-7.1619e-06
2.39363e-06
5.35672e-06
-7.07769e-06
4.9057e-07
6.74796e-06
-5.97813e-06
-1.87443e-06
7.31209e-06
-3.90307e-06
-3.94072e-06
6.68825e-06
-1.43902e-06
-5.03722e-06
5.12195e-06
6.17241e-07
-5.00827e-06
3.32285e-06
1.76998e-06
-4.31017e-06
1.97988e-06
2.15089e-06
-3.65894e-06
1.26269e-06
2.37783e-06
-3.45043e-06
7.14093e-07
2.99853e-06
-3.4099e-06
-3.18279e-07
3.94287e-06
-2.81571e-06
-2.01457e-06
4.48339e-06
-1.18598e-06
-3.76139e-06
3.82973e-06
1.14183e-06
-4.54587e-06
1.8982e-06
3.11876e-06
-3.80826e-06
-4.64341e-07
3.78905e-06
-1.98895e-06
-2.10673e-06
3.09581e-06
-1.8476e-07
-2.52926e-06
1.87671e-06
8.27943e-07
-2.22012e-06
9.87669e-07
1.22407e-06
-1.97301e-06
4.52889e-07
1.69695e-06
-1.89955e-06
-3.75113e-07
2.40562e-06
-1.31138e-06
-1.75745e-06
2.57789e-06
2.71058e-07
-2.89017e-06
1.4079e-06
2.15976e-06
-2.61343e-06
-7.2556e-07
2.93119e-06
-8.34912e-07
-2.32947e-06
1.96013e-06
1.12149e-06
-2.31447e-06
1.97716e-07
1.88122e-06
-1.1564e-06
-9.24276e-07
1.47079e-06
-1.44276e-07
-1.11725e-06
9.2729e-07
3.03201e-07
-1.17434e-06
6.35064e-07
8.43383e-07
-1.36036e-06
-8.47249e-08
1.64206e-06
-8.3334e-07
-1.41258e-06
1.62314e-06
7.65002e-07
-2.06585e-06
9.66306e-08
2.06501e-06
-9.30806e-07
-1.65638e-06
1.53028e-06
9.79537e-07
-1.77248e-06
-2.26408e-07
1.63892e-06
-4.15083e-07
-1.20465e-06
8.06727e-07
6.06082e-07
-8.85595e-07
3.11612e-10
6.67184e-07
-4.76838e-07
-2.29883e-07
7.32194e-07
-3.11882e-07
-7.33883e-07
8.37476e-07
5.05794e-07
-1.24573e-06
-1.14524e-07
1.47186e-06
-3.50341e-07
-1.49403e-06
7.96706e-07
1.33039e-06
-1.14704e-06
-1.02924e-06
1.34951e-06
6.556e-07
-1.38237e-06
-2.77513e-07
1.25243e-06
-4.55742e-08
-9.89038e-07
2.7072e-07
6.3571e-07
-3.75262e-07
-2.41321e-07
3.56791e-07
-1.47679e-07
-2.30173e-07
4.93009e-07
2.27754e-08
-7.67881e-07
2.31016e-07
9.57981e-07
-4.95062e-07
-1.06051e-06
7.35874e-07
1.08188e-06
-9.25814e-07
-1.03473e-06
1.04503e-06
9.34781e-07
-1.0822e-06
-7.98001e-07
1.03444e-06
6.38473e-07
-9.06441e-07
-4.66999e-07
7.09359e-07
2.9059e-07
-4.59465e-07
-1.12733e-07
1.76776e-07
-6.56756e-08
1.16313e-07
2.4492e-07
-3.96411e-07
-4.24797e-07
6.40595e-07
6.02949e-07
-8.28032e-07
-7.73472e-07
9.41794e-07
9.26083e-07
-9.70839e-07
-1.04612e-06
9.12021e-07
1.11559e-06
-7.71854e-07
-1.11543e-06
5.67622e-07
1.02883e-06
-3.2735e-07
-8.45488e-07
8.81276e-08
5.65996e-07
1.07619e-07
-2.05735e-07
-2.18002e-07
-2.03052e-07
2.09333e-07
6.12081e-07
-6.46162e-08
-9.6175e-07
-2.08782e-07
1.19017e-06
5.74455e-07
-1.24591e-06
-9.67607e-07
1.10255e-06
1.30295e-06
-7.71899e-07
-1.49049e-06
3.11375e-07
1.45766e-06
1.78585e-07
-1.17384e-06
-5.70389e-07
6.70382e-07
7.38419e-07
-4.82049e-08
-5.97e-07
-5.3438e-07
1.3766e-07
8.96859e-07
5.47699e-07
-8.90723e-07
-1.27152e-06
4.59582e-07
1.79184e-06
3.1588e-07
-1.88746e-06
-1.21191e-06
1.44886e-06
1.91167e-06
-5.51912e-07
-2.11033e-06
-5.24402e-07
1.64849e-06
1.36547e-06
-6.21982e-07
-1.57307e-06
-5.93923e-07
9.5841e-07
1.45015e-06
3.07744e-07
-1.45238e-06
-1.68363e-06
4.34791e-07
2.4421e-06
1.25813e-06
-2.02097e-06
-2.82205e-06
3.92271e-07
3.33281e-06
1.76959e-06
-2.27256e-06
-3.30421e-06
-2.86569e-08
3.16978e-06
2.36516e-06
-1.17037e-06
-3.22021e-06
-1.66261e-06
1.74397e-06
3.44967e-06
1.42593e-06
-2.61168e-06
-4.19911e-06
-8.15333e-07
4.23315e-06
4.70674e-06
-7.6811e-07
-5.95518e-06
-4.22809e-06
2.82732e-06
6.90346e-06
3.05216e-06
-4.39428e-06
-7.10277e-06
-2.17158e-06
5.1817e-06
7.44975e-06
2.17735e-06
-5.84144e-06
-8.72435e-06
-2.7471e-06
7.15505e-06
1.0867e-05
3.21226e-06
-9.1644e-06
-1.32448e-05
-3.46815e-06
1.11196e-05
1.54714e-05
4.2818e-06
-1.21239e-05
-1.78631e-05
-6.81319e-06
1.16889e-05
2.10959e-05
1.19126e-05
-9.63016e-06
-2.53831e-05
-1.97881e-05
5.42845e-06
2.9761e-05
3.00873e-05
2.33843e-06
-3.17916e-05
-4.19001e-05
-1.58867e-05
2.76006e-05
5.31062e-05
3.70831e-05
-1.21938e-05
-5.89155e-05
-6.5086e-05
-1.94423e-05
5.0288e-05
9.27529e-05
6.91025e-05
-1.4202e-05
-0.00010262
-0.000128333
-6.05964e-05
6.58343e-05
0.000167902
0.000167822
4.76952e-05
-0.000131024
-0.000257402
-0.000235576
-4.88008e-05
0.000215617
0.000402175
0.000372454
9.52643e-05
-0.0003138
-0.000635168
-0.000655525
-0.000290086
0.000348049
0.000971922
0.00123581
0.000898185
-3.57804e-05
-0.00126054
-0.00224575
-0.00243
-0.00146673
0.000573993
0.00313495
0.00527415
0.0059241
0.00424392
-2.70277e-05
-0.00630939
-0.0130948
-0.0180634
-0.0183907
-0.0111738
0.00611424
0.0352343
0.076918
0.130765
0.195303
0.268197
0.346548
0.427239
0.507256
0.58394
0.655162
0.719412
0.775812
0.82407
0.864375
0.89727
0.923529
0.94404
0.95973
0.971494
0.980152
0.986409
0.990849
0.993936
0.996037
0.997444
0.998377
0.998993
0.999393
0.99964
0.999782
0.99986
0.99991
0.999953
0.999988
1
1
0.999985
0.999976
0.999987
1.00001
1.00003
1.00002
0.999994
0.99997
0.999971
0.999998
1.00003
1.00004
1.00002
0.999973
0.999947
0.999962
1.00001
1.00006
1.00007
1.00002
0.999949
0.999907
0.999932
1.00002
1.0001
1.00013
1.00006
0.999935
0.999833
0.999831
0.999951
1.00013
1.00026
1.00024
1.00005
0.999783
0.999598
0.999629
0.999906
1.00031
1.00063
1.00066
1.00029
0.999653
0.999027
0.998762
0.999102
1.00004
1.00126
1.00224
1.00243
1.00147
0.999428
0.996867
0.994725
0.994073
0.995755
1.00003
1.00631
1.0131
1.01806
1.01839
1.01117
0.993889
0.964768
0.92308
0.869231
0.804696
0.731807
0.653456
0.572761
0.492739
0.416056
0.344839
0.280594
0.224191
0.175927
0.135619
0.102727
0.0764752
0.0559671
0.0402731
0.0285008
0.0198401
0.013588
0.00915723
0.00607346
0.00396489
0.00254802
0.00161211
0.00100427
0.000616021
0.000372099
0.000221337
0.000129656
7.47949e-05
4.24898e-05
2.37691e-05
1.30927e-05
7.1006e-06
3.79104e-06
1.99232e-06
1.03042e-06
5.24365e-07
2.62484e-07
1.29207e-07
6.25208e-08
2.97253e-08
1.38793e-08
6.36021e-09
2.85836e-09
1.25865e-09
5.42443e-10
2.28482e-10
9.3893e-11
3.75575e-11
1.45783e-11
5.46777e-12
1.96929e-12
6.74566e-13
2.16199e-13
6.28092e-14
1.53129e-14
2.30197e-15
-4.73175e-16
-6.58586e-16
-4.05098e-16
-1.97593e-16
-8.45007e-17
-3.26747e-17
-1.14894e-17
-3.62676e-18
-9.83947e-19
-1.98606e-19
-6.87976e-21
2.12434e-20
1.53085e-20
7.59455e-21
3.13804e-21
1.12895e-21
3.52937e-22
9.12168e-23
1.58045e-23
-1.0279e-24
-2.63736e-24
-1.58868e-24
-7.04329e-25
-2.59602e-25
-8.08373e-26
-2.01957e-26
-3.10094e-27
4.59235e-28
6.60121e-28
3.60131e-28
1.47213e-28
4.93166e-29
1.33483e-29
2.49651e-30
-1.30421e-32
-2.96371e-31
-1.79379e-31
-7.51182e-32
-2.50435e-32
-6.58314e-33
-1.12693e-33
6.5624e-35
1.65204e-34
9.07699e-35
3.53603e-35
1.08098e-35
2.45696e-36
2.53288e-37
-1.20259e-37
-9.72843e-38
-4.32543e-38
-1.44486e-38
-3.65773e-39
-5.49841e-40
7.54361e-41
1.01031e-40
4.92074e-41
1.71342e-41
4.48025e-42
7.23645e-43
-6.10333e-44
-1.0869e-43
-5.3932e-44
-1.8634e-44
-4.74661e-45
-7.05875e-46
9.09596e-47
1.29991e-46
4.24603e-47
)
;

boundaryField
{
    sides
    {
        type            zeroGradient;
    }
    empty
    {
        type            empty;
    }
}


// ************************************************************************* //
