/*--------------------------------*- C++ -*----------------------------------*\
| =========                 |                                                 |
| \\      /  F ield         | OpenFOAM: The Open Source CFD Toolbox           |
|  \\    /   O peration     | Version:  2312                                  |
|   \\  /    A nd           | Website:  www.openfoam.com                      |
|    \\/     M anipulation  |                                                 |
\*---------------------------------------------------------------------------*/
FoamFile
{
    version     2.0;
    format      ascii;
    arch        "LSB;label=32;scalar=64";
    class       volScalarField;
    location    "0.1";
    object      T;
}
// * * * * * * * * * * * * * * * * * * * * * * * * * * * * * * * * * * * * * //

dimensions      [0 0 0 1 0 0 0];

internalField   nonuniform List<scalar> 
1000
(
0
0
0
0
0
0
0
0
0
0
0
0
0
0
0
0
0
0
0
0
0
0
0
0
0
0
0
0
0
0
0
0
0
0
0
0
0
0
0
0
0
0
0
0
0
0
0
0
0
0
0
0
0
0
0
0
0
0
0
0
0
0
0
0
0
0
0
0
0
0
0
0
0
0
0
0
0
0
0
0
0
0
0
0
0
0
0
0
0
0
0
0
0
0
0
0
0
0
0
0
0
0
0
0
0
0
0
0
0
0
0
0
0
0
0
0
0
0
0
0
0
0
0
0
0
0
0
0
2.96439e-323
-6.17582e-322
1.18724e-320
-2.26411e-319
4.31101e-318
-8.19658e-317
1.5561e-315
-2.9498e-314
5.58331e-313
-1.05519e-311
1.99117e-310
-3.7516e-309
7.05755e-308
-1.3256e-306
2.48596e-305
-4.65466e-304
8.70149e-303
-1.62407e-301
3.02634e-300
-5.63024e-299
1.04575e-297
-1.93919e-296
3.58999e-295
-6.63507e-294
1.22425e-292
-2.25511e-291
4.14693e-290
-7.61283e-289
1.39515e-287
-2.55237e-286
4.66136e-285
-8.49809e-284
1.54655e-282
-2.80956e-281
5.09491e-280
-9.22262e-279
1.66643e-277
-3.00558e-276
5.41095e-275
-9.72339e-274
1.74403e-272
-3.12234e-271
5.57941e-270
-9.95116e-269
1.77145e-267
-3.1474e-266
5.5813e-265
-9.87809e-264
1.74486e-262
-3.07602e-261
5.41199e-260
-9.5029e-259
1.66526e-257
-2.91223e-256
5.08258e-255
-8.8522e-254
1.53858e-252
-2.6686e-251
4.61889e-250
-7.97764e-249
1.37496e-247
-2.36469e-246
4.0581e-245
-6.94913e-244
1.18738e-242
-2.02439e-241
3.44379e-240
-5.84536e-239
9.89945e-238
-1.67274e-236
2.82007e-235
-4.74346e-234
7.96028e-233
-1.33276e-231
2.22619e-230
-3.70977e-229
6.16742e-228
-1.02287e-226
1.69238e-225
-2.79332e-224
4.59923e-223
-7.55411e-222
1.23768e-220
-2.0228e-219
3.29767e-218
-5.36249e-217
8.69805e-216
-1.40723e-214
2.27086e-213
-3.65501e-212
5.86747e-211
-9.39444e-210
1.50017e-208
-2.38918e-207
3.79483e-206
-6.01119e-205
9.49609e-204
-1.49602e-202
2.35033e-201
-3.68225e-200
5.75281e-199
-8.96233e-198
1.39228e-196
-2.15671e-195
3.33122e-194
-5.13044e-193
7.87838e-192
-1.20626e-190
1.84144e-189
-2.80271e-188
4.25297e-187
-6.43415e-186
9.70436e-185
-1.45918e-183
2.1873e-182
-3.26854e-181
4.86899e-180
-7.23023e-179
1.07025e-177
-1.57915e-176
2.32254e-175
-3.40481e-174
4.97508e-173
-7.24565e-172
1.05175e-170
-1.52159e-169
2.19391e-168
-3.15261e-167
4.51479e-166
-6.44335e-165
9.16395e-164
-1.29879e-162
1.8343e-161
-2.58146e-160
3.62004e-159
-5.05828e-158
7.04244e-157
-9.7693e-156
1.35024e-154
-1.85933e-153
2.55086e-152
-3.48651e-151
4.74742e-150
-6.43983e-149
8.70222e-148
-1.17142e-146
1.57076e-145
-2.09801e-144
2.79124e-143
-3.69882e-142
4.88198e-141
-6.41773e-140
8.40248e-139
-1.09562e-137
1.42275e-136
-1.83992e-135
2.3695e-134
-3.03872e-133
3.8805e-132
-4.93438e-131
6.24759e-130
-7.87616e-129
9.88609e-128
-1.23546e-126
1.53714e-125
-1.90398e-124
2.34781e-123
-2.88205e-122
3.52178e-121
-4.28382e-120
5.18673e-119
-6.25078e-118
7.49786e-117
-8.95135e-116
1.06359e-114
-1.25769e-113
1.48004e-112
-1.73325e-111
2.01984e-110
-2.34221e-109
2.70253e-108
-3.10268e-107
3.5441e-106
-4.02773e-105
4.55392e-104
-5.12225e-103
5.73155e-102
-6.37968e-101
7.06359e-100
-7.77915e-99
8.5212e-98
-9.28354e-97
1.00589e-95
-1.08391e-94
1.16152e-93
-1.23772e-92
1.3115e-91
-1.38178e-90
1.4475e-89
-1.50759e-88
1.56104e-87
-1.6069e-86
1.64432e-85
-1.67257e-84
1.69108e-83
-1.69941e-82
1.69734e-81
-1.6848e-80
1.66194e-79
-1.6291e-78
1.58678e-77
-1.53569e-76
1.47666e-75
-1.41066e-74
1.33875e-73
-1.2621e-72
1.18188e-71
-1.09929e-70
1.0155e-69
-9.31652e-69
8.48793e-68
-7.67884e-67
6.89771e-66
-6.15178e-65
5.44692e-64
-4.78769e-63
4.17726e-62
-3.61757e-61
3.10933e-60
-2.65222e-59
2.24496e-58
-1.88551e-57
1.57121e-56
-1.29894e-55
1.06525e-54
-8.66539e-54
6.99126e-53
-5.5939e-52
4.43837e-51
-3.49173e-50
2.72346e-49
-2.10582e-48
1.61397e-47
-1.22601e-46
9.22939e-46
-6.88464e-45
5.08824e-44
-3.72546e-43
2.70188e-42
-1.94075e-41
1.38049e-40
-9.723e-40
6.7797e-39
-4.67952e-38
3.19675e-37
-2.16107e-36
1.44548e-35
-9.56461e-35
6.25987e-34
-4.05162e-33
2.59288e-32
-1.64038e-31
1.02573e-30
-6.33814e-30
3.86939e-29
-2.33336e-28
1.38958e-27
-8.17049e-27
4.74212e-26
-2.71612e-25
1.53484e-24
-8.55461e-24
4.7015e-23
-2.54709e-22
1.35984e-21
-7.15208e-21
3.70447e-20
-1.88893e-19
9.47855e-19
-4.67877e-18
2.27095e-17
-1.08338e-16
5.0775e-16
-2.33671e-15
1.05541e-14
-4.67585e-14
2.03082e-13
-8.64137e-13
3.60004e-12
-1.46736e-11
5.84708e-11
-2.27593e-10
8.64593e-10
-3.20245e-09
1.15536e-08
-4.05529e-08
1.38312e-07
-4.57758e-07
1.46789e-06
-4.55304e-06
1.36347e-05
-3.93374e-05
0.000109078
-0.000289893
0.000736075
-0.00177892
0.0040737
-0.00879124
0.0177575
-0.0332798
0.0571941
-0.0886466
0.120772
-0.138256
0.120328
-0.0541545
-0.0435054
0.115125
-0.0926695
-0.0252505
0.122061
-0.0592712
-0.10501
0.103043
0.112681
-0.114003
-0.186168
0.063046
0.450585
0.758674
0.922046
0.983181
0.998682
1.00063
1.00031
1.00007
1
0.999998
0.999999
1
1
1
1
1
1
1
1
1
1
1
1
1
1
1
1
1
1
1
1
1
1
1
1
1
1
1
1
1
1
1
1
1
1
1
1
1
1
1
1
1
1
1
1
1
1
1
1
1
1
1
1
1
1
1
1
1
1
1
0.999999
1
0.999986
1.00004
0.999891
1.00029
0.999264
1.00178
0.995926
1.00879
0.982242
1.03328
0.942806
1.08865
0.879228
1.13826
0.879672
1.05415
1.04351
0.884875
1.09267
1.02525
0.877939
1.05927
1.10501
0.896957
0.887319
1.114
1.18617
0.936954
0.549415
0.241326
0.0779536
0.0168191
0.00131786
-0.000633031
-0.000307892
-6.58977e-05
-4.22594e-06
1.95435e-06
7.14992e-07
1.00037e-07
-3.91714e-09
-4.57619e-09
-8.5981e-10
-2.84105e-11
2.11261e-11
4.87553e-12
2.99841e-13
-7.80318e-14
-2.10143e-14
-1.54701e-15
2.47972e-16
7.32688e-17
5.60621e-18
-7.11997e-19
-2.13368e-19
-1.5628e-20
1.88226e-21
5.27726e-22
3.46806e-23
-4.54321e-24
-1.11789e-24
-6.18621e-26
9.81415e-27
2.0363e-27
8.77458e-29
-1.86446e-29
-3.19539e-30
-9.43985e-32
3.08341e-32
4.32299e-33
6.42305e-35
-4.42199e-35
-5.04255e-36
5.98885e-39
5.50053e-38
5.06752e-39
-9.76429e-41
-5.94956e-41
-4.37808e-42
1.78215e-43
5.61691e-44
3.23635e-45
-2.20076e-46
-4.64945e-47
-2.0269e-48
2.15335e-49
3.39155e-50
1.05301e-51
-1.76273e-52
-2.19252e-53
-4.3101e-55
1.24048e-55
1.26421e-56
1.16961e-58
-7.63263e-59
-6.54968e-60
1.19059e-63
4.15645e-62
3.07516e-63
-2.60193e-65
-2.02262e-65
-1.32137e-66
2.00754e-68
8.86552e-69
5.25238e-70
-1.04004e-71
-3.52306e-72
-1.95213e-73
4.22847e-75
1.27555e-75
6.84528e-77
-1.39209e-78
-4.21961e-79
-2.27685e-80
3.60448e-82
1.27547e-82
7.18642e-84
-6.21727e-86
-3.50932e-86
-2.14228e-87
-8.30948e-91
8.70342e-90
5.97761e-91
6.27988e-93
-1.90704e-93
-1.54207e-94
-3.27553e-96
3.53667e-97
3.61972e-98
1.18112e-99
-4.94257e-101
-7.56066e-102
-3.43462e-103
2.65127e-105
1.35403e-105
8.38042e-107
1.23247e-108
-1.91624e-109
-1.71934e-110
-5.65998e-112
1.58244e-113
2.88046e-114
1.49839e-115
1.46866e-117
-3.57501e-118
-2.93351e-119
-9.68465e-121
1.99153e-122
4.26011e-123
2.40326e-124
4.48619e-126
-3.78377e-127
-3.95717e-128
-1.72221e-129
-1.02537e-131
4.10552e-132
3.20948e-133
1.15333e-134
-5.84988e-137
-3.57493e-137
-2.40961e-138
-7.68518e-140
9.33258e-142
2.73081e-142
1.73155e-143
5.35224e-145
-6.64062e-147
-1.88805e-147
-1.20772e-148
-3.94764e-150
2.24299e-152
1.18213e-152
8.14645e-154
3.00228e-155
1.50575e-157
-6.49682e-158
-5.21429e-159
-2.25135e-160
-3.732e-162
2.83823e-163
3.0594e-164
1.59369e-165
4.41827e-167
-6.04749e-169
-1.54579e-169
-1.02204e-170
-3.96634e-172
-5.16827e-174
5.73428e-175
5.63151e-176
2.91261e-177
8.66758e-179
-3.86657e-181
-2.38567e-181
-1.74293e-182
-7.71084e-184
-1.78008e-185
4.66107e-187
7.85669e-188
4.98621e-189
2.00775e-190
3.79852e-192
-1.79354e-193
-2.29828e-194
-1.37372e-195
-5.34137e-197
-9.5678e-199
5.03364e-200
6.20322e-201
3.70668e-202
1.47259e-203
2.97278e-205
-1.08384e-206
-1.55087e-207
-9.77705e-209
-4.15996e-210
-1.03854e-211
1.37473e-213
3.50039e-214
2.47589e-215
1.16995e-216
3.64771e-218
2.25272e-220
-6.59288e-221
-5.81234e-222
-3.15772e-223
-1.20716e-224
-2.4845e-226
7.61974e-228
1.18421e-228
7.83156e-230
3.63245e-231
1.15496e-232
1.08063e-234
-1.75552e-235
-1.67314e-236
-9.61852e-238
-4.0292e-239
-1.09924e-240
1.78706e-243
2.64058e-243
2.11889e-244
1.13605e-245
4.50968e-247
1.12745e-248
-9.44265e-251
-3.3242e-251
-2.52058e-252
-1.32443e-253
-5.22527e-255
-1.32266e-256
8.58315e-259
3.68791e-259
2.85592e-260
1.53359e-261
6.27949e-263
1.7585e-264
4.83228e-267
-3.54668e-267
-3.05544e-268
-1.7454e-269
-7.67651e-271
-2.48286e-272
-3.50311e-274
2.63596e-275
2.98442e-276
1.90377e-277
9.24478e-279
3.48062e-280
8.49238e-282
-6.55976e-284
-2.44555e-284
-1.90575e-285
-1.05484e-286
-4.61508e-288
-1.5299e-289
-2.59207e-291
1.22444e-292
1.60873e-293
1.08392e-294
5.56624e-296
2.28885e-297
6.96186e-299
7.98454e-301
-8.71301e-302
-9.14816e-303
-5.81345e-304
-2.89619e-305
-1.16597e-306
-3.46876e-308
-3.59359e-310
4.63733e-311
4.7383e-312
3.00252e-313
1.5056e-314
6.17111e-316
1.92445e-317
2.74666e-319
-1.91697e-320
-2.248e-321
-1.43279e-322
-4.94066e-324
0
0
0
0
0
0
0
0
0
0
0
0
0
0
0
0
0
0
0
0
0
0
0
0
0
0
0
0
0
0
0
0
0
0
0
0
0
0
0
0
0
0
0
0
0
0
0
0
0
0
0
0
0
0
0
0
0
0
0
0
0
0
0
0
0
0
0
0
0
0
0
0
0
0
0
0
0
0
0
0
0
0
0
0
0
0
0
0
0
0
0
0
0
0
0
0
0
0
0
0
0
0
0
0
0
0
0
0
0
0
0
0
0
0
0
0
0
0
0
0
0
0
0
0
0
0
0
0
0
0
0
0
0
0
0
0
0
0
0
0
0
0
0
0
0
0
0
0
0
0
0
0
0
0
0
0
0
0
0
0
0
0
0
0
0
0
0
0
0
0
)
;

boundaryField
{
    sides
    {
        type            zeroGradient;
    }
    empty
    {
        type            empty;
    }
}


// ************************************************************************* //
