/*--------------------------------*- C++ -*----------------------------------*\
| =========                 |                                                 |
| \\      /  F ield         | OpenFOAM: The Open Source CFD Toolbox           |
|  \\    /   O peration     | Version:  2312                                  |
|   \\  /    A nd           | Website:  www.openfoam.com                      |
|    \\/     M anipulation  |                                                 |
\*---------------------------------------------------------------------------*/
FoamFile
{
    version     2.0;
    format      ascii;
    arch        "LSB;label=32;scalar=64";
    class       volScalarField;
    location    "5";
    object      T;
}
// * * * * * * * * * * * * * * * * * * * * * * * * * * * * * * * * * * * * * //

dimensions      [0 0 0 1 0 0 0];

internalField   nonuniform List<scalar> 
1000
(
0
0
0
0
0
0
0
0
0
0
0
0
0
0
0
0
0
0
0
0
0
0
0
0
0
0
0
0
0
0
0
0
0
0
0
0
0
0
0
0
0
0
0
0
0
0
0
0
0
0
0
0
0
0
0
0
0
0
0
0
0
0
0
0
0
0
0
0
0
0
0
0
0
0
0
0
0
0
0
0
0
0
0
0
0
0
0
0
0
0
0
0
0
0
0
0
0
0
0
0
0
0
0
0
0
0
0
0
0
0
0
0
0
0
0
0
0
0
0
0
0
0
0
0
0
0
0
0
0
0
0
0
0
0
0
0
0
0
0
0
0
0
0
0
0
0
0
0
0
0
0
0
0
0
0
0
0
0
0
0
0
0
0
0
0
0
0
0
0
0
0
0
0
-4.94066e-324
2.96439e-323
-4.94066e-324
2.96439e-323
-4.94066e-324
2.96439e-323
-4.94066e-324
2.96439e-323
-4.94066e-324
2.96439e-323
-4.94066e-324
2.96439e-323
-4.94066e-324
2.96439e-323
-4.94066e-324
2.96439e-323
-4.94066e-324
2.96439e-323
-4.94066e-324
2.96439e-323
-4.94066e-324
2.96439e-323
-4.94066e-324
2.96439e-323
-4.94066e-324
2.96439e-323
-4.94066e-324
2.96439e-323
-4.94066e-324
2.96439e-323
-4.94066e-324
2.96439e-323
-4.94066e-324
2.96439e-323
-4.94066e-324
2.96439e-323
-4.94066e-324
2.96439e-323
-4.94066e-324
2.96439e-323
-4.94066e-324
2.96439e-323
-4.94066e-324
2.96439e-323
-4.94066e-324
2.96439e-323
-4.94066e-324
2.96439e-323
-4.94066e-324
2.96439e-323
-4.94066e-324
2.96439e-323
-4.94066e-324
2.96439e-323
-4.94066e-324
2.96439e-323
-4.94066e-324
2.96439e-323
-4.94066e-324
2.96439e-323
-4.94066e-324
2.96439e-323
-4.94066e-324
2.96439e-323
-4.94066e-324
2.96439e-323
-4.94066e-324
2.96439e-323
-4.94066e-324
2.96439e-323
-4.94066e-324
2.96439e-323
-4.94066e-324
2.96439e-323
-4.94066e-324
2.96439e-323
-4.94066e-324
2.96439e-323
-4.94066e-324
2.96439e-323
-4.94066e-324
2.96439e-323
-4.94066e-324
2.96439e-323
-4.94066e-324
9.88131e-324
2.96439e-323
5.43472e-323
7.41098e-323
9.88131e-323
1.18576e-322
1.43279e-322
1.63042e-322
1.87745e-322
2.12448e-322
2.37152e-322
2.61855e-322
2.86558e-322
3.06321e-322
3.26083e-322
3.45846e-322
3.65609e-322
4.15015e-322
4.00193e-322
3.7549e-322
3.55727e-322
3.35965e-322
3.16202e-322
2.96439e-322
2.76677e-322
2.51973e-322
2.2727e-322
2.02567e-322
1.77864e-322
1.5316e-322
1.33398e-322
1.08694e-322
8.89318e-323
6.42285e-323
4.44659e-323
1.97626e-323
-4.94066e-324
-2.96439e-323
-4.94066e-323
-7.41098e-323
-9.38725e-323
-1.13635e-322
-1.38338e-322
-1.63042e-322
-1.87745e-322
-2.07508e-322
-2.2727e-322
-2.51973e-322
-2.71736e-322
-2.96439e-322
-3.16202e-322
-3.40905e-322
-3.65609e-322
-3.85371e-322
-4.05134e-322
-4.24896e-322
-4.496e-322
-4.74303e-322
-4.99006e-322
-5.2371e-322
-5.48413e-322
-5.73116e-322
-5.97819e-322
-6.17582e-322
-6.42285e-322
-6.62048e-322
-6.81811e-322
-7.01573e-322
-7.21336e-322
-7.46039e-322
-7.65802e-322
-7.85564e-322
-8.10268e-322
-8.3003e-322
-8.54734e-322
-8.74496e-322
-8.99199e-322
-9.23903e-322
-9.43665e-322
-9.63428e-322
-1.40315e-321
-1.05236e-320
-1.85467e-319
-3.42062e-318
-3.59116e-317
-3.65037e-317
3.74736e-316
7.66054e-315
1.15766e-313
1.6195e-312
2.15443e-311
2.73925e-310
3.33464e-309
3.89107e-308
4.3569e-307
4.69142e-306
4.8854e-305
4.98804e-304
5.14221e-303
5.64012e-302
7.03065e-301
1.03608e-299
1.77074e-298
3.31277e-297
6.41392e-296
1.23741e-294
2.32852e-293
4.22539e-292
7.35679e-291
1.2267e-289
1.95677e-288
2.98157e-287
4.34653e-286
6.06925e-285
8.11559e-284
1.03988e-282
1.28379e-281
1.4988e-280
4.96507e-280
5.48415e-281
-8.7757e-279
-1.16252e-277
-1.35188e-276
-1.61884e-275
-2.11482e-274
-3.09671e-273
-5.07567e-272
-9.0715e-271
-1.70401e-269
-3.252e-268
-6.15695e-267
-1.1379e-265
-2.0344e-264
-3.50017e-263
-5.77831e-262
-9.13934e-261
-1.384e-259
-2.0058e-258
-2.79272e-257
-3.73416e-256
-4.78896e-255
-5.97878e-254
-3.27971e-253
-2.42696e-253
3.1794e-252
4.66646e-251
5.20371e-250
5.40416e-249
5.40661e-248
5.26385e-247
5.03556e-246
4.94838e-245
5.6425e-244
8.43555e-243
1.60309e-241
3.40646e-240
7.37309e-239
1.55665e-237
3.15379e-236
6.0947e-235
1.12293e-233
1.96872e-232
3.28765e-231
5.25526e-230
7.99885e-229
1.1662e-227
1.64574e-226
1.72854e-225
2.55503e-225
-7.94172e-225
-1.73666e-223
-2.21061e-222
-2.55326e-221
-2.81752e-220
-3.00174e-219
-3.10092e-218
-3.12008e-217
-3.07834e-216
-3.00942e-215
-2.95848e-214
-2.97475e-213
-3.1033e-212
-3.38169e-211
-3.84402e-210
-4.52834e-209
-5.48052e-208
-6.75079e-207
-8.3923e-206
-1.04822e-204
-1.31711e-203
-1.67429e-202
-2.16149e-201
-2.83039e-200
-3.72471e-199
-4.85159e-198
-6.18535e-197
-7.71671e-196
-9.672e-195
-1.18054e-193
-3.27343e-193
1.73302e-193
1.03267e-191
1.54509e-190
2.03962e-189
2.5271e-188
2.93123e-187
3.17762e-186
3.32376e-185
3.6747e-184
4.74162e-183
7.16051e-182
1.16679e-180
1.90116e-179
2.97186e-178
4.3865e-177
6.06598e-176
7.85029e-175
9.48467e-174
1.07012e-172
1.12355e-171
1.10442e-170
9.69247e-170
6.26611e-169
1.12676e-168
2.48077e-169
-7.04969e-168
-3.73101e-167
-1.22773e-166
-3.51436e-166
-1.26721e-165
-6.71256e-165
-4.24689e-164
-2.69524e-163
-1.632e-162
-9.3749e-162
-5.125e-161
-2.6839e-160
-1.16e-159
-1.74405e-159
-3.98169e-160
1.31671e-158
1.13766e-157
5.20636e-157
5.12527e-157
-1.81079e-156
-2.65957e-155
-2.40937e-154
-1.94963e-153
-1.47643e-152
-1.06836e-151
-7.74944e-151
-6.12809e-150
-5.65028e-149
-6.02113e-148
-6.98936e-147
-8.36821e-146
-9.98305e-145
-1.15819e-143
-1.28346e-142
-1.33607e-141
-1.29669e-140
-1.0394e-139
-2.02957e-139
4.97761e-140
3.12454e-138
1.51738e-137
1.39824e-137
-5.20096e-137
-5.78724e-136
-3.78418e-135
-2.21629e-134
-1.30336e-133
-3.66722e-133
-2.42018e-133
2.3804e-132
2.92347e-131
2.60131e-130
1.97871e-129
1.2911e-128
7.1595e-128
3.33387e-127
1.30492e-126
4.70535e-126
2.00326e-125
1.23831e-124
1.01108e-123
9.0943e-123
8.3346e-122
4.20437e-121
3.91184e-121
-2.07357e-120
-2.95082e-119
-2.15142e-118
-2.8437e-118
5.17889e-118
1.01526e-116
8.56171e-116
1.56109e-115
-8.35142e-116
-3.17918e-114
-3.13324e-113
-1.812e-112
-2.03067e-112
5.03959e-112
8.13375e-111
6.99644e-110
1.98274e-109
8.96276e-110
-1.70616e-108
-1.77369e-107
-1.40216e-106
-4.18409e-106
-2.45115e-106
2.8553e-105
3.00235e-104
1.86294e-103
2.55163e-103
-2.42787e-103
-5.56178e-102
-4.72473e-101
-3.27643e-100
-8.09328e-100
-3.74896e-100
5.9121e-99
5.66152e-98
4.11529e-97
1.62134e-96
1.53914e-96
-4.54272e-96
-5.76601e-95
-4.30641e-94
-2.43076e-93
-3.81967e-93
6.35439e-94
4.73021e-92
3.80967e-91
2.47561e-90
7.25436e-90
5.6e-90
-2.74307e-89
-2.82373e-88
-1.92291e-87
-1.18725e-86
-7.07154e-86
-4.13812e-85
-2.3938e-84
-1.3717e-83
-7.78497e-83
-4.38167e-82
-2.44456e-81
-1.3512e-80
-7.3273e-80
-2.35657e-79
-2.2654e-79
3.95152e-79
5.08542e-78
3.27914e-77
1.84181e-76
9.84998e-76
5.1492e-75
2.65532e-74
1.35529e-73
6.85562e-73
3.43863e-72
1.71057e-71
8.44029e-71
4.13104e-70
2.00568e-69
9.65996e-69
4.61545e-68
2.18769e-67
1.02873e-66
4.79924e-66
2.22129e-65
1.02002e-64
4.64722e-64
2.10072e-63
9.42193e-63
4.19294e-62
1.85145e-61
8.112e-61
3.52675e-60
1.52145e-59
6.51312e-59
2.76677e-58
1.16632e-57
4.87896e-57
2.02541e-56
8.34409e-56
3.4114e-55
1.38414e-54
5.57347e-54
2.2273e-53
8.83371e-53
3.47716e-52
1.35841e-51
5.267e-51
2.02689e-50
7.74171e-50
2.93486e-49
1.10429e-48
4.12417e-48
1.52878e-47
5.62492e-47
2.05425e-46
7.44665e-46
2.67943e-45
9.56976e-45
3.39267e-44
1.19389e-43
4.17041e-43
1.44605e-42
4.97714e-42
1.70049e-41
5.76723e-41
1.94161e-40
6.48877e-40
2.15263e-39
7.08897e-39
2.31744e-38
7.52046e-38
2.42267e-37
7.74746e-37
2.45946e-36
7.75067e-36
2.42469e-35
7.52994e-35
2.32138e-34
7.10431e-34
2.15833e-33
6.50929e-33
1.94881e-32
5.79198e-32
1.70885e-31
5.00495e-31
1.45517e-30
4.19997e-30
1.20336e-29
3.42263e-29
9.66359e-29
2.7085e-28
7.53583e-28
2.08133e-27
5.70635e-27
1.55303e-26
4.19568e-26
1.12519e-25
2.99532e-25
7.91507e-25
2.07614e-24
5.4056e-24
1.39706e-23
3.58396e-23
9.12615e-23
2.30665e-22
5.78684e-22
1.44099e-21
3.56155e-21
8.73709e-21
2.12735e-20
5.14105e-20
1.2331e-19
2.93543e-19
6.93531e-19
1.6262e-18
3.78435e-18
8.73991e-18
2.00316e-17
4.55627e-17
1.02844e-16
2.30365e-16
5.12053e-16
1.12944e-15
2.47203e-15
5.36877e-15
1.15696e-14
2.47384e-14
5.24841e-14
1.10477e-13
2.30726e-13
4.78064e-13
9.82721e-13
2.00409e-12
4.05445e-12
8.13698e-12
1.61993e-11
3.19902e-11
6.26629e-11
1.21748e-10
2.34615e-10
4.48409e-10
8.49969e-10
1.59781e-09
2.97865e-09
5.50643e-09
1.00939e-08
1.8347e-08
3.3065e-08
5.90811e-08
1.04661e-07
1.83803e-07
3.19986e-07
5.522e-07
9.44549e-07
1.60136e-06
2.6907e-06
4.4805e-06
7.39339e-06
1.2089e-05
1.95855e-05
3.14374e-05
4.99915e-05
7.87498e-05
0.000122878
0.000189904
0.000290667
0.000440575
0.000661257
0.000982667
0.00144573
0.00210559
0.00303544
0.00433098
0.00611536
0.00854443
0.0118119
0.0161543
0.0218541
0.029242
0.0386953
0.0506331
0.0655063
0.0837826
0.105924
0.13236
0.163452
0.199458
0.240493
0.286487
0.337158
0.391984
0.450199
0.510799
0.572578
0.634175
0.694149
0.751068
0.803602
0.850621
0.891277
0.925067
0.951861
0.971894
0.985718
0.99415
0.998312
0.999724
0.999981
1
1
1
1
1
1
1
1
1
1
1
1
1
1
1
1
1
1
1
1
1
1
1
1
1
1
1
1
1
1
1
1
1
1
1
1
1
1
1
1
1
1
1
1
0.999999
0.999999
0.999998
0.999997
0.999996
0.999993
0.999988
0.99998
0.999969
0.99995
0.999921
0.999877
0.99981
0.999709
0.999559
0.999338
0.999016
0.998553
0.997893
0.996962
0.995666
0.99388
0.99145
0.98818
0.983836
0.978133
0.970741
0.961284
0.949341
0.934462
0.916179
0.89403
0.867587
0.836487
0.800472
0.759429
0.713427
0.66275
0.607918
0.5497
0.489098
0.42732
0.365726
0.305757
0.248845
0.196321
0.149312
0.108667
0.0748887
0.0481053
0.0280821
0.0142672
0.00584178
0.00168446
0.000275578
1.90833e-05
4.03451e-07
1.91664e-09
1.58424e-12
1.916e-16
1.64031e-20
1.42958e-24
1.25709e-28
1.10736e-32
9.73126e-37
8.51697e-41
7.42383e-45
6.44998e-49
5.59208e-53
4.84337e-57
4.19424e-61
3.63351e-65
3.14975e-69
2.73217e-73
2.37122e-77
2.05866e-81
1.7876e-85
1.55227e-89
1.34782e-93
1.17017e-97
1.01583e-101
8.81756e-106
7.65334e-110
6.64265e-114
5.76539e-118
5.00404e-122
4.3433e-126
3.76987e-130
3.2722e-134
2.84024e-138
2.46532e-142
2.13988e-146
1.8574e-150
1.6122e-154
1.39936e-158
1.21462e-162
1.05426e-166
9.15068e-171
7.94254e-175
6.8939e-179
5.9837e-183
5.19367e-187
4.50794e-191
3.91274e-195
3.39612e-199
2.94771e-203
2.5585e-207
2.22068e-211
1.92746e-215
1.67295e-219
1.45205e-223
1.26031e-227
1.09389e-231
9.49447e-236
8.24073e-240
7.15253e-244
6.20802e-248
5.38822e-252
4.67668e-256
4.05909e-260
3.52305e-264
3.0578e-268
2.65398e-272
2.30349e-276
1.99928e-280
1.73524e-284
1.50607e-288
1.30716e-292
1.13453e-296
9.84687e-301
8.54636e-305
7.41759e-309
6.4379e-313
5.58759e-317
4.83196e-321
0
0
0
0
0
)
;

boundaryField
{
    sides
    {
        type            zeroGradient;
    }
    empty
    {
        type            empty;
    }
}


// ************************************************************************* //
