/*--------------------------------*- C++ -*----------------------------------*\
| =========                 |                                                 |
| \\      /  F ield         | OpenFOAM: The Open Source CFD Toolbox           |
|  \\    /   O peration     | Version:  2312                                  |
|   \\  /    A nd           | Website:  www.openfoam.com                      |
|    \\/     M anipulation  |                                                 |
\*---------------------------------------------------------------------------*/
FoamFile
{
    version     2.0;
    format      ascii;
    arch        "LSB;label=32;scalar=64";
    class       volScalarField;
    location    "0.6";
    object      T;
}
// * * * * * * * * * * * * * * * * * * * * * * * * * * * * * * * * * * * * * //

dimensions      [0 0 0 1 0 0 0];

internalField   nonuniform List<scalar> 
1000
(
0
0
0
0
0
0
0
0
0
0
0
0
0
0
0
0
0
0
0
0
0
0
0
0
0
0
0
0
0
0
0
0
0
0
0
0
0
0
0
0
0
0
0
0
0
0
0
0
0
0
0
0
0
0
0
0
0
0
0
0
0
0
0
0
0
0
0
0
0
0
0
0
0
0
0
0
0
0
0
0
0
0
0
0
0
0
0
0
0
0
0
0
0
0
0
0
0
0
0
0
0
0
0
0
0
0
0
0
0
0
0
0
0
0
0
0
0
0
0
0
0
0
0
0
0
0
0
0
0
0
0
0
0
0
0
0
0
0
0
0
0
0
0
0
0
0
0
0
0
0
0
0
0
0
0
0
0
0
0
0
0
0
0
0
0
0
0
0
0
0
0
0
0
0
0
0
0
0
0
0
0
0
0
0
0
0
0
0
0
0
0
0
0
0
0
0
0
0
0
0
0
0
0
0
0
0
0
0
0
0
0
0
0
0
0
0
0
0
0
0
0
0
0
0
0
0
0
0
0
0
0
0
0
0
0
0
0
0
0
0
0
0
0
0
0
0
0
0
0
0
0
0
0
0
0
0
0
0
0
0
0
0
0
0
0
0
0
0
0
0
0
0
0
0
0
0
0
0
0
0
0
0
0
0
0
0
0
0
0
0
0
0
0
0
0
0
0
0
0
0
0
0
0
0
0
0
0
0
0
0
0
0
0
0
0
0
0
0
0
0
0
0
0
0
0
0
0
0
0
0
0
0
0
0
0
0
0
0
0
0
0
0
0
0
0
0
0
0
0
0
0
0
0
0
0
0
0
0
0
0
0
0
0
0
0
0
0
0
0
0
0
0
0
0
0
0
0
0
0
0
0
0
0
0
0
0
0
0
0
0
0
0
0
0
0
0
0
0
0
0
0
0
0
0
0
0
0
0
0
0
0
0
0
0
0
0
0
0
0
0
0
0
0
0
0
0
0
0
0
0
0
0
0
0
0
0
0
0
0
0
0
0
0
0
0
0
0
0
0
0
7.35739e-18
2.88276e-16
5.6602e-15
7.42581e-14
7.3233e-13
5.79111e-12
3.82516e-11
2.17079e-10
1.08053e-09
4.79251e-09
1.91781e-08
6.99439e-08
2.34433e-07
7.27209e-07
2.10026e-06
5.67686e-06
1.44253e-05
3.45981e-05
7.86015e-05
0.000169682
0.000349069
0.0006861
0.0012915
0.00233337
0.00405442
0.00678807
0.0109698
0.0171396
0.0259316
0.0380474
0.0542129
0.075119
0.101353
0.133324
0.171203
0.214867
0.263878
0.31749
0.37468
0.434217
0.494741
0.554862
0.613253
0.66873
0.720322
0.767307
0.809231
0.845901
0.877355
0.903825
0.92569
0.943423
0.95755
0.96861
0.977121
0.983561
0.988355
0.991865
0.994396
0.996192
0.997447
0.998311
0.998898
0.99929
0.999548
0.999716
0.999824
0.999892
0.999935
0.999961
0.999977
0.999987
0.999992
0.999996
0.999998
0.999999
0.999999
1
1
1
1
1
1
1
1
1
1
1
1
1
1
1
1
1
1
1
1
1
1
1
1
1
1
1
1
1
1
1
1
1
1
1
1
0.999999
0.999998
0.999994
0.999986
0.999965
0.999921
0.99983
0.999651
0.999314
0.998708
0.997667
0.995946
0.993212
0.98903
0.98286
0.974068
0.961953
0.945787
0.924881
0.898647
0.866676
0.828797
0.785133
0.736122
0.68251
0.62532
0.565783
0.505259
0.445138
0.386747
0.33127
0.279678
0.232693
0.190769
0.154099
0.122645
0.0961749
0.0743105
0.0565773
0.0424496
0.0313898
0.022879
0.0164389
0.0116454
0.00813482
0.00560419
0.00380819
0.00255289
0.00168859
0.0011022
0.000710098
0.000451608
0.000283572
0.00017583
0.000107676
6.51341e-05
3.89254e-05
2.29857e-05
1.34137e-05
7.73703e-06
4.41159e-06
2.48701e-06
1.38638e-06
7.64314e-07
4.16779e-07
2.24825e-07
1.19991e-07
6.3368e-08
3.31184e-08
1.71317e-08
8.77239e-09
4.44708e-09
2.23216e-09
1.10948e-09
5.46143e-10
2.66279e-10
1.28606e-10
6.15353e-11
2.91726e-11
1.37043e-11
6.37997e-12
2.94375e-12
1.34633e-12
6.1039e-13
2.74356e-13
1.22268e-13
5.40312e-14
2.36781e-14
1.02911e-14
4.43631e-15
1.89701e-15
8.04714e-16
3.38667e-16
1.41416e-16
5.85944e-17
2.40923e-17
9.831e-18
3.98153e-18
1.60054e-18
6.38676e-19
2.53001e-19
9.95003e-20
3.88523e-20
1.50636e-20
5.7995e-21
2.21733e-21
8.41937e-22
3.17515e-22
1.18935e-22
4.42537e-23
1.63571e-23
6.00629e-24
2.19117e-24
7.94224e-25
2.86042e-25
1.02368e-25
3.64055e-26
1.28666e-26
4.5194e-27
1.57775e-27
5.47471e-28
1.8883e-28
6.47428e-29
2.2067e-29
7.47736e-30
2.519e-30
8.43734e-31
2.80995e-31
9.3053e-32
3.06421e-32
1.00343e-32
3.26776e-33
1.05835e-33
3.40916e-34
1.09224e-34
3.48068e-35
1.10332e-35
3.47896e-36
1.09125e-36
3.40522e-37
1.05713e-37
3.26508e-38
1.00336e-38
3.06782e-39
9.33333e-40
2.82546e-40
8.51149e-41
2.55153e-41
7.61184e-42
2.2599e-42
6.67751e-43
1.96372e-43
5.74781e-44
1.67453e-44
4.85592e-45
1.40168e-45
4.02752e-46
1.15201e-46
3.28031e-47
9.29887e-48
2.6243e-48
7.37362e-49
2.06273e-49
5.74531e-50
1.59333e-50
4.3998e-51
1.20978e-51
3.31239e-52
9.03126e-53
2.45211e-53
6.6302e-54
1.78534e-54
4.78782e-55
1.27875e-55
3.40156e-56
9.01206e-57
2.37814e-57
6.25069e-58
1.63647e-58
4.26762e-59
1.1086e-59
2.8687e-60
7.39481e-61
1.89894e-61
4.8579e-62
1.23808e-62
3.14356e-63
7.95205e-64
2.00414e-64
5.03247e-65
1.25906e-65
3.13859e-66
7.79571e-67
1.92938e-67
4.75806e-68
1.16924e-68
2.86316e-69
6.9866e-70
1.69893e-70
4.11698e-71
9.94236e-72
2.39284e-72
5.73932e-73
1.37195e-73
3.26856e-74
7.76108e-75
1.83673e-75
4.33244e-76
1.01857e-76
2.3869e-77
5.57525e-78
1.29805e-78
3.01248e-79
6.96899e-80
1.60707e-80
3.69427e-81
8.46562e-82
1.93389e-82
4.40408e-83
9.99854e-84
2.26299e-84
5.10626e-85
1.14869e-85
2.57626e-86
5.76062e-87
1.28425e-87
2.85457e-88
6.32623e-89
1.39788e-89
3.07982e-90
6.76573e-91
1.48199e-91
3.23687e-92
7.04953e-93
1.53093e-93
3.31528e-94
7.15908e-95
1.54161e-95
3.3104e-96
7.08889e-97
1.51382e-97
3.22386e-98
6.84684e-99
1.45017e-99
3.06319e-100
6.45292e-101
1.35573e-101
2.84074e-102
5.93657e-103
1.23735e-103
2.57221e-104
5.33316e-105
1.10289e-105
2.27485e-106
4.68009e-107
9.60376e-108
1.96571e-108
4.01322e-109
8.17276e-110
1.66016e-110
3.36392e-111
6.79918e-112
1.37085e-112
2.7571e-113
5.53154e-114
1.10708e-114
2.2103e-115
4.40223e-116
8.74676e-117
1.73372e-117
3.42825e-118
6.76289e-119
1.33096e-119
2.6132e-120
5.11874e-121
1.00032e-121
1.95031e-122
3.79372e-123
7.36252e-124
1.42558e-124
2.75401e-125
5.30825e-126
1.02084e-126
1.95876e-127
3.75002e-128
7.16336e-129
1.36532e-129
2.59652e-130
4.92711e-131
9.32911e-132
1.76255e-132
3.32274e-133
6.25046e-134
1.17325e-134
2.19756e-135
4.10735e-136
7.66052e-137
1.42572e-137
2.64787e-138
4.90734e-139
9.07587e-140
1.67504e-140
3.08505e-141
5.67027e-142
1.04004e-142
1.90376e-143
3.47764e-144
6.33983e-145
1.15343e-145
2.09428e-146
3.79493e-147
6.8629e-148
1.23865e-148
2.23115e-149
4.01101e-150
7.19657e-151
1.28869e-151
2.30317e-152
4.10829e-153
7.31404e-154
1.29962e-154
2.30487e-155
4.07988e-156
7.20813e-157
1.27109e-157
2.23723e-158
3.93033e-159
6.89186e-160
1.20624e-160
2.1073e-161
3.67466e-162
6.39599e-163
1.11123e-163
1.9271e-164
3.33592e-165
5.76421e-166
9.94216e-167
1.71175e-167
2.94187e-168
5.04698e-169
8.64307e-170
1.47753e-170
2.52138e-171
4.29514e-172
7.30392e-173
1.23988e-173
2.1011e-174
3.55438e-175
6.00251e-176
1.01194e-176
1.70309e-177
2.8614e-178
4.79934e-179
8.03621e-180
1.34335e-180
2.24181e-181
3.73492e-182
6.21213e-183
1.03152e-183
1.71002e-184
2.83012e-185
4.67625e-186
7.71402e-187
1.27044e-187
2.08894e-188
3.4292e-189
5.62032e-190
9.19669e-191
1.50248e-191
2.45071e-192
3.99104e-193
6.48922e-194
1.05345e-194
1.70748e-195
2.76322e-196
4.46475e-197
7.20286e-198
1.16022e-198
1.86597e-199
2.99642e-200
4.80435e-201
7.69137e-202
1.22945e-202
1.96228e-203
3.1272e-204
4.97617e-205
7.90648e-206
1.25436e-206
1.98708e-207
3.14313e-208
4.9644e-209
7.82945e-210
1.23299e-210
1.93887e-211
3.04443e-212
4.77344e-213
7.47357e-214
1.16842e-214
1.82407e-215
2.84356e-216
4.42653e-217
6.88089e-218
1.0681e-218
1.65562e-219
2.56271e-220
3.9612e-221
6.1143e-222
9.42454e-223
1.45067e-223
2.22985e-224
3.42281e-225
5.24677e-226
8.03164e-227
1.22778e-227
1.87434e-228
2.85748e-229
4.35041e-230
6.61441e-231
1.00431e-231
1.52286e-232
2.30607e-233
3.48744e-234
5.26701e-235
7.94412e-236
1.19662e-236
1.80008e-237
2.70433e-238
4.05752e-239
6.07988e-240
9.09841e-241
1.3598e-241
2.02965e-242
3.0256e-243
4.50447e-244
6.69763e-245
9.94592e-246
1.47509e-246
)
;

boundaryField
{
    sides
    {
        type            zeroGradient;
    }
    empty
    {
        type            empty;
    }
}


// ************************************************************************* //
