/*--------------------------------*- C++ -*----------------------------------*\
| =========                 |                                                 |
| \\      /  F ield         | OpenFOAM: The Open Source CFD Toolbox           |
|  \\    /   O peration     | Version:  2312                                  |
|   \\  /    A nd           | Website:  www.openfoam.com                      |
|    \\/     M anipulation  |                                                 |
\*---------------------------------------------------------------------------*/
FoamFile
{
    version     2.0;
    format      ascii;
    arch        "LSB;label=32;scalar=64";
    class       volScalarField;
    location    "1.6";
    object      T;
}
// * * * * * * * * * * * * * * * * * * * * * * * * * * * * * * * * * * * * * //

dimensions      [0 0 0 1 0 0 0];

internalField   nonuniform List<scalar> 
1000
(
3.71075e-110
-1.29855e-109
4.52679e-109
-1.58655e-108
5.54819e-108
-1.93683e-107
6.74936e-107
-2.34781e-106
8.15247e-106
-2.8258e-105
9.7772e-105
-3.37682e-104
1.16418e-103
-4.00634e-103
1.37622e-102
-4.7189e-102
1.61511e-101
-5.51785e-101
1.88167e-100
-6.40496e-100
2.17616e-99
-7.3801e-99
2.49821e-98
-8.44088e-98
2.84667e-97
-9.5824e-97
3.21956e-96
-1.0797e-95
3.614e-95
-1.2074e-94
4.02617e-94
-1.34e-93
4.45132e-93
-1.47584e-92
4.8838e-92
-1.61301e-91
5.31714e-91
-1.74935e-90
5.74421e-90
-1.8825e-89
6.15732e-89
-2.01e-88
6.54851e-88
-2.12928e-87
6.90973e-87
-2.23782e-86
7.23311e-86
-2.33321e-85
7.51125e-85
-2.41321e-84
7.7375e-84
-2.47586e-83
7.90619e-83
-2.51955e-82
8.01289e-82
-2.5431e-81
8.05459e-81
-2.5458e-80
8.02981e-80
-2.52745e-79
7.93874e-79
-2.48835e-78
7.7832e-78
-2.42934e-77
7.56658e-77
-2.35173e-76
7.29375e-76
-2.25728e-75
6.97087e-75
-2.1481e-74
6.60514e-74
-2.0266e-73
6.20454e-73
-1.89541e-72
5.77754e-72
-1.75723e-71
5.3328e-71
-1.6148e-70
4.87887e-70
-1.47079e-69
4.42392e-69
-1.32766e-68
3.97548e-68
-1.1877e-67
3.5403e-67
-1.05288e-66
3.12411e-66
-9.24859e-66
2.73163e-65
-8.04939e-65
2.36644e-64
-6.94086e-64
2.03102e-63
-5.92919e-63
1.72684e-62
-5.01739e-62
1.45436e-61
-4.20561e-61
1.21323e-60
-3.49153e-60
1.00239e-59
-2.87081e-59
8.20192e-59
-2.33757e-58
6.64579e-58
-1.88477e-57
5.33207e-57
-1.50471e-56
4.23573e-56
-1.18936e-55
3.33125e-55
-9.30687e-55
2.59357e-54
-7.20918e-54
1.99877e-53
-5.52743e-53
1.52463e-52
-4.19448e-52
1.15097e-51
-3.15001e-51
8.59848e-51
-2.34091e-50
6.35623e-50
-1.72131e-49
4.64896e-49
-1.25224e-48
3.36395e-48
-9.0123e-48
2.40791e-47
-6.41589e-47
1.70483e-46
-4.51761e-46
1.1938e-45
-3.14591e-45
8.26696e-45
-2.16633e-44
5.66081e-44
-1.47503e-43
3.8325e-43
-9.92936e-43
2.56514e-42
-6.60759e-42
1.69713e-41
-4.34626e-41
1.1098e-40
-2.82546e-40
7.17212e-40
-1.81515e-39
4.5801e-39
-1.15221e-38
2.88983e-38
-7.22593e-38
1.8013e-37
-4.47657e-37
1.10908e-36
-2.73923e-36
6.74434e-36
-1.65534e-35
4.05008e-35
-9.87783e-35
2.40145e-34
-5.81959e-34
1.40575e-33
-3.38467e-33
8.12283e-33
-1.943e-32
4.63238e-32
-1.10076e-31
2.60696e-31
-6.1534e-31
1.44754e-30
-3.39365e-30
7.92905e-30
-1.84621e-29
4.28389e-29
-9.90567e-29
2.28249e-28
-5.24085e-28
1.1991e-27
-2.73375e-27
6.21016e-27
-1.40565e-26
3.17008e-26
-7.1232e-26
1.5947e-25
-3.55689e-25
7.90389e-25
-1.74976e-24
3.85898e-24
-8.47833e-24
1.85559e-23
-4.04553e-23
8.78576e-23
-1.90056e-22
4.09514e-22
-8.78879e-22
1.87867e-21
-3.99964e-21
8.48057e-21
-1.79082e-20
3.76605e-20
-7.88707e-20
1.64485e-19
-3.41587e-19
7.06366e-19
-1.45444e-18
2.98183e-18
-6.08663e-18
1.23698e-17
-2.50279e-17
5.04132e-17
-1.0109e-16
2.01788e-16
-4.00952e-16
7.93014e-16
-1.56114e-15
3.05885e-15
-5.96501e-15
1.15766e-14
-2.23587e-14
4.29726e-14
-8.21852e-14
1.56398e-13
-2.96131e-13
5.57865e-13
-1.04555e-12
1.94943e-12
-3.61573e-12
6.67088e-12
-1.22418e-11
2.23438e-11
-4.05594e-11
7.3219e-11
-1.31439e-10
2.34621e-10
-4.16408e-10
7.34775e-10
-1.28896e-09
2.24773e-09
-3.89613e-09
6.71236e-09
-1.1493e-08
1.95557e-08
-3.30641e-08
5.55449e-08
-9.27035e-08
1.53699e-07
-2.5312e-07
4.14016e-07
-6.72506e-07
1.08472e-06
-1.7371e-06
2.76167e-06
-4.35815e-06
6.82586e-06
-1.06091e-05
1.63607e-05
-2.50301e-05
3.79831e-05
-5.71628e-05
8.53011e-05
-0.000126192
0.000185038
-0.000268875
0.00038708
-0.000551965
0.00077942
-0.00108959
0.00150749
-0.00206355
0.00279377
-0.00373957
0.00494689
-0.00646436
0.00834044
-0.010619
0.0133335
-0.0164994
0.0201054
-0.024104
0.0284014
-0.0328491
0.037239
-0.0413027
0.0447182
-0.047126
0.0481552
-0.0474603
0.0447673
-0.0399248
0.0329544
-0.0240933
0.0138178
-0.00283909
-0.00793612
0.0174856
-0.0247886
0.0289706
-0.0294563
0.0261062
-0.0193059
0.00997998
0.000489404
-0.0104434
0.0182114
-0.0224203
0.0222894
-0.0178432
0.00997821
-0.00034377
-0.00896552
0.0158586
-0.0187457
0.0169621
-0.0109951
0.00242505
0.00643915
-0.0131615
0.0158682
-0.0138247
0.0077093
0.000536202
-0.0082723
0.0129962
-0.0131842
0.00884901
-0.00158606
-0.00594968
0.0109889
-0.0116871
0.00785933
-0.00109593
-0.00583293
0.0100864
-0.00994082
0.00555013
0.00108438
-0.00696874
0.00945529
-0.0074712
0.00204825
0.00413985
-0.00805844
0.0078141
-0.00362585
-0.00226225
0.00673202
-0.00744012
0.00409248
0.00137523
-0.00585934
0.00683969
-0.00383623
-0.00129577
0.00545314
-0.00614925
0.00303949
0.00185448
-0.00540932
0.00539416
-0.00192246
-0.00261285
0.00512612
-0.00392
-0.000153308
0.00428649
-0.00569995
0.00363673
7.32662e-05
-0.00233245
0.00104904
0.00331883
-0.00814235
0.01068
-0.0102494
0.00879741
-0.00937305
0.0136816
-0.0206959
0.0274916
-0.0316474
0.033207
-0.034504
0.0379554
-0.0437156
0.0492756
-0.0514201
0.0488422
-0.0430643
0.0368198
-0.0314026
0.025511
-0.0167494
0.00440053
0.00922446
-0.0202585
0.0262329
-0.0276747
0.0268272
-0.0248887
0.0207189
-0.0124589
0.000397253
0.0120474
-0.0204973
0.0228751
-0.0204682
0.0158386
-0.0100447
0.00234468
0.00737457
-0.0165016
0.0208093
-0.0179798
0.00978909
-0.000501471
-0.00673625
0.0115144
-0.0143559
0.0143208
-0.0095393
0.000280532
0.0094838
-0.0146262
0.0131077
-0.00720838
0.000585262
0.0049936
-0.00940638
0.0116362
-0.00937433
0.00205427
0.00675029
-0.0115531
0.00987292
-0.00407664
-0.00181769
0.00591467
-0.00818874
0.00786133
-0.00348446
-0.00382665
0.00932059
-0.0087037
0.00278486
0.00350489
-0.00643326
0.00609376
-0.00384708
-0.000143273
0.00515197
-0.00779504
0.00486765
0.00189381
-0.00667619
0.00595589
-0.00179106
-0.00199396
0.00416422
-0.00485498
0.00291305
0.00200409
-0.0062137
0.00511099
0.000479718
-0.00478495
0.00439186
-0.00141603
-0.00121911
0.00321919
-0.00406358
0.00162025
0.00330596
-0.0054251
0.001876
0.00303598
-0.00397149
0.00159823
0.000611321
-0.00216014
0.0032506
-0.00159525
-0.00280131
0.00459296
-0.000836609
-0.00339485
0.00296061
-0.000156579
-0.0012227
0.00193359
-0.0022405
-0.000352072
0.00384939
-0.00245031
-0.00243488
0.00339701
-0.000102361
-0.00155795
0.00117055
-0.00140772
2.82395e-05
0.00317882
-0.0021214
-0.00280314
0.00308659
0.00112738
-0.0019646
0.000288561
-0.000594774
-0.000528265
0.00303532
-0.000142354
-0.00401539
0.000741311
0.00310959
-0.000477587
-0.00082221
-0.00061674
-0.00182429
0.00171468
0.0037299
-0.00181284
-0.00401162
0.000545998
0.00225837
0.00132502
0.00110602
-0.00220939
-0.00450818
0.000885377
0.00554626
0.00198735
-0.00252597
-0.00347934
-0.00325749
0.000600175
0.00680678
0.00549815
-0.00316506
-0.00781214
-0.00535649
-1.94178e-05
0.00719889
0.0116575
0.00512597
-0.00847233
-0.015895
-0.0124503
-0.00127223
0.0148977
0.0277914
0.0241278
0.00170714
-0.0276675
-0.0513804
-0.0582528
-0.0340513
0.029442
0.125964
0.24395
0.374775
0.507252
0.627227
0.727873
0.810474
0.874863
0.919522
0.948893
0.97
0.984279
0.99096
0.993923
0.997423
1.00001
0.999478
0.998539
0.999907
1.00118
0.999964
0.998767
0.999994
1.00124
1.00007
0.998754
0.999834
1.00125
1.0003
0.998775
0.99952
1.00117
1.00069
0.998934
0.999082
1.00089
1.00115
0.999376
0.998658
1.00026
1.00146
1.00019
0.998559
0.9993
1.00123
1.0012
0.999199
0.998418
1.00014
1.00172
1.00066
0.998527
0.998556
1.00079
1.00195
1.00028
0.998096
0.998554
1.00112
1.00226
1.00031
0.997789
0.9981
1.001
1.0028
1.00108
0.997818
0.997034
0.999895
1.00317
1.00293
0.999166
0.995969
0.997054
1.00161
1.00495
1.00333
0.997926
0.993927
0.995556
1.0019
1.00742
1.00679
0.999706
0.991539
0.989232
0.995715
1.00723
1.0156
1.0138
1.00103
0.983871
0.972915
0.976829
0.997259
1.02707
1.0526
1.05846
1.03279
0.970723
0.875243
0.755568
0.624149
0.493483
0.373676
0.271205
0.188813
0.126187
0.0810069
0.0499755
0.029638
0.0168982
0.00926126
0.00487714
0.00246609
0.00119593
0.000555315
0.000246303
0.000103994
4.15892e-05
1.56335e-05
5.45566e-06
1.72856e-06
4.74459e-07
9.86357e-08
5.53647e-09
-8.78694e-09
-6.45043e-09
-3.09694e-09
-1.19921e-09
-3.87726e-10
-1.00779e-10
-1.7131e-11
1.09807e-12
2.59455e-12
1.42139e-12
5.50895e-13
1.66174e-13
3.6548e-14
3.19907e-15
-2.0267e-15
-1.46252e-15
-6.00518e-16
-1.80431e-16
-3.76147e-17
-2.31207e-18
2.45647e-18
1.51754e-18
5.56071e-19
1.43413e-19
2.12282e-20
-2.55945e-21
-3.24336e-21
-1.38527e-21
-3.92581e-22
-6.87326e-23
1.33406e-24
6.67605e-24
3.07986e-24
8.87351e-25
1.55088e-25
-2.59116e-27
-1.42084e-26
-6.32397e-27
-1.71759e-27
-2.61937e-28
2.12822e-29
3.05476e-29
1.18497e-29
2.803e-30
2.96556e-31
-8.91711e-32
-6.12953e-32
-1.94114e-32
-3.59852e-33
-5.73584e-35
2.44836e-34
1.06226e-34
2.59333e-35
2.9012e-36
-6.95159e-37
-4.90789e-37
-1.48198e-37
-2.45644e-38
6.54234e-40
1.9756e-39
7.31259e-40
1.49587e-40
8.056e-42
-7.05453e-42
-3.25032e-42
-7.66902e-43
-7.44211e-44
2.2652e-44
1.33763e-44
3.5061e-45
4.31976e-46
-6.66145e-47
-5.20308e-47
-1.47176e-47
-2.04531e-48
1.86689e-49
1.94395e-49
5.7694e-50
8.476e-51
-5.4262e-52
-7.05652e-52
-2.13285e-52
-3.15992e-53
1.8302e-54
2.50364e-54
7.47083e-55
1.07017e-55
-7.37683e-57
-8.68344e-57
-2.48086e-57
-3.28642e-58
3.24106e-59
2.92965e-59
7.78665e-60
9.01931e-61
-1.40474e-61
-9.53542e-62
-2.29508e-62
-2.12971e-63
5.70801e-64
2.96417e-64
6.28598e-65
3.87978e-66
-2.13517e-66
-8.70539e-67
-1.57326e-67
-2.90743e-69
7.31204e-69
2.38706e-69
3.49392e-70
-1.66526e-71
-2.28714e-71
-6.02551e-72
-6.46189e-73
1.10612e-73
6.51401e-74
1.3727e-74
8.08819e-76
-4.39878e-76
-1.67911e-76
-2.72759e-77
2.69943e-79
1.39597e-78
3.87235e-79
4.3747e-80
-6.00524e-81
-3.77429e-81
-7.81177e-82
-4.22222e-83
2.46909e-83
8.84372e-84
1.31154e-84
-4.4896e-86
-7.25076e-86
-1.78373e-86
-1.57874e-87
3.77086e-88
1.73297e-88
2.98987e-89
3.1202e-91
-1.24417e-90
-3.45946e-91
-3.7249e-92
5.28835e-93
3.02077e-93
5.6475e-94
1.73624e-95
-1.97781e-95
-5.88804e-96
-6.818e-97
7.41308e-98
4.79121e-98
9.1584e-99
3.29599e-100
-2.98587e-100
-8.94209e-101
-1.0231e-101
1.11102e-102
6.98831e-103
1.29296e-103
3.76004e-105
-4.30903e-105
-1.21799e-105
-1.27046e-106
1.75584e-107
9.36681e-108
1.58859e-108
1.58518e-110
-5.87454e-110
-1.48145e-110
-1.27126e-111
2.7157e-112
1.14242e-112
1.67481e-113
-4.14396e-115
-7.39756e-115
-1.58813e-115
-9.24983e-117
3.84333e-117
1.24729e-117
1.46266e-118
-1.27008e-119
-8.39284e-120
-1.46543e-120
-2.6692e-122
4.78778e-122
1.19257e-122
9.67066e-124
-2.14749e-124
-8.37365e-125
-1.1142e-125
5.08324e-127
5.13922e-127
9.67977e-128
3.28285e-129
-2.70527e-129
-7.15788e-130
-6.28985e-131
1.12636e-131
4.67411e-132
6.31343e-133
-2.43934e-134
-2.71502e-134
-5.05349e-135
-1.61479e-136
1.38074e-136
3.52189e-137
2.86585e-138
-5.79166e-139
-2.20232e-139
-2.73784e-140
1.56986e-141
1.24589e-141
2.10542e-142
2.98093e-144
-6.32917e-144
-1.42165e-144
-8.88471e-146
2.79965e-146
8.69981e-147
8.90144e-148
-9.79037e-149
-4.88344e-149
-6.86911e-150
1.58999e-151
2.51661e-151
4.61318e-152
1.38016e-153
-1.17829e-153
-2.81191e-154
-1.96015e-155
4.86177e-156
1.58413e-156
1.65143e-157
-1.61826e-158
-8.31064e-159
-1.14789e-159
2.81254e-161
4.06258e-161
7.1253e-162
1.6268e-163
-1.8387e-163
-4.07546e-164
-2.39537e-165
7.57068e-166
2.18034e-166
1.95238e-167
-2.71543e-168
-1.09912e-168
-1.30374e-169
7.4186e-171
5.23533e-171
7.78237e-172
-4.96346e-174
-2.35377e-173
-4.29655e-174
-1.29272e-175
9.93359e-176
2.23081e-176
1.32701e-177
-3.88539e-178
-1.09927e-178
-9.37805e-180
1.36948e-180
5.16735e-181
5.66889e-182
-4.04807e-183
-2.32305e-183
-3.12005e-184
7.52259e-186
9.99345e-186
1.60623e-186
1.62026e-188
-4.10773e-188
-7.84459e-189
-2.91643e-190
1.60683e-190
3.66478e-191
2.20567e-192
-5.93361e-193
-1.64624e-193
-1.33132e-194
2.03623e-195
7.13444e-196
7.16288e-197
-6.28013e-198
-2.98925e-198
-3.57703e-199
1.59345e-200
1.21231e-200
1.69072e-201
-2.19761e-203
-4.76085e-203
-7.64746e-204
-9.01822e-206
1.80965e-205
3.33309e-206
1.07849e-207
-6.64912e-208
-1.40624e-208
-7.05491e-210
2.35543e-210
5.7619e-211
3.81187e-212
-8.00884e-213
-2.29826e-213
-1.86048e-214
2.59382e-215
8.94008e-216
8.49407e-217
-7.89237e-218
-3.39617e-218
-3.69138e-219
2.19482e-220
1.26646e-220
1.18403e-221
)
;

boundaryField
{
    sides
    {
        type            zeroGradient;
    }
    empty
    {
        type            empty;
    }
}


// ************************************************************************* //
