/*--------------------------------*- C++ -*----------------------------------*\
| =========                 |                                                 |
| \\      /  F ield         | OpenFOAM: The Open Source CFD Toolbox           |
|  \\    /   O peration     | Version:  2312                                  |
|   \\  /    A nd           | Website:  www.openfoam.com                      |
|    \\/     M anipulation  |                                                 |
\*---------------------------------------------------------------------------*/
FoamFile
{
    version     2.0;
    format      ascii;
    arch        "LSB;label=32;scalar=64";
    class       volScalarField;
    location    "5";
    object      T;
}
// * * * * * * * * * * * * * * * * * * * * * * * * * * * * * * * * * * * * * //

dimensions      [0 0 0 1 0 0 0];

internalField   nonuniform List<scalar> 
1000
(
0.516554
0.525245
0.513373
0.514889
0.502437
0.501323
0.500127
0.503068
0.512113
0.519112
0.524135
0.530621
0.519012
0.524388
0.498227
0.50868
0.48161
0.503841
0.485899
0.519891
0.506496
0.545682
0.521384
0.559482
0.512019
0.549065
0.480424
0.522558
0.447815
0.501977
0.438033
0.506421
0.460642
0.538271
0.505753
0.581268
0.551414
0.610055
0.575812
0.603893
0.566095
0.55617
0.520801
0.475253
0.447636
0.378054
0.359457
0.281584
0.269984
0.197572
0.189936
0.131647
0.124698
0.0849973
0.0746896
0.0557126
0.0380638
0.0392439
0.0134032
0.0294034
0.000138439
0.0207718
-0.00311667
0.0111222
0.000130028
0.00166652
0.00516559
-0.00511494
0.00835048
-0.00787164
0.00838615
-0.0069383
0.00566624
-0.00340593
0.00115023
0.0014318
-0.00374706
0.00570196
-0.00686397
0.00707948
-0.00620932
0.00438353
-0.00188071
-0.000847327
0.00331313
-0.00507844
0.00586589
-0.00560415
0.0044314
-0.00264029
0.000597804
0.00133958
-0.0028876
0.00386377
-0.00418675
0.00386002
-0.00295537
0.00160553
-3.87653e-06
-0.00160035
0.00292483
-0.00370174
0.00374333
-0.0030055
0.00162347
0.000101244
-0.0017673
0.00297777
-0.00345025
0.00309622
-0.00204252
0.00058812
0.000887676
-0.0020332
0.00261326
-0.00255391
0.00193668
-0.000954232
-0.000150587
0.00114112
-0.00182672
0.00208557
-0.00187657
0.00124598
-0.000327498
-0.00067153
0.00150595
-0.00195097
0.00186994
-0.00126828
0.000308229
0.000729526
-0.00153074
0.00185153
-0.00160265
0.000880536
6.81195e-05
-0.00093478
0.00145595
-0.00149775
0.00108869
-0.000393868
-0.000353034
0.00092995
-0.00118986
0.00109067
-0.000690793
0.000120911
0.000454621
-0.000877319
0.00103058
-0.000869258
0.000437166
0.000136259
-0.000667034
0.000973162
-0.000940708
0.000573445
-1.16114e-06
-0.000563447
0.000906311
-0.000898968
0.000552392
-1.22326e-05
-0.000503448
0.000796071
-0.000766746
0.000450121
9.82758e-06
-0.000426794
0.000649158
-0.000613883
0.000358972
3.42856e-06
-0.000335877
0.000524876
-0.000514688
0.000319426
-1.44858e-05
-0.000288462
0.000477419
-0.000479064
0.000289028
2.01599e-05
-0.000322147
0.000487003
-0.000439522
0.000197867
0.000129646
-0.000392493
0.000469523
-0.000328428
4.1634e-05
0.000250573
-0.000410643
0.000370963
-0.000163119
-0.000103872
0.000301889
-0.000346209
0.000230833
-2.26412e-05
-0.000177259
0.000282199
-0.000255304
0.000118902
6.09766e-05
-0.000204839
0.000251979
-0.000184047
3.25611e-05
0.000133048
-0.000234553
0.00022123
-9.702e-05
-7.72254e-05
0.00021173
-0.000234545
0.000132276
3.9823e-05
-0.000186965
0.000228197
-0.000142979
-1.73115e-05
0.000160302
-0.000207115
0.000137178
3.11044e-06
-0.000131181
0.000177735
-0.000124411
9.03863e-06
0.0001009
-0.000147797
0.000113084
-2.21589e-05
-7.35157e-05
0.000124627
-0.00010775
3.47539e-05
5.45451e-05
-0.000112457
0.000107571
-4.19882e-05
-4.79698e-05
0.000110322
-0.000107213
3.90526e-05
5.32825e-05
-0.000112281
0.000100301
-2.49615e-05
-6.47719e-05
0.000110604
-8.38219e-05
4.21395e-06
7.42181e-05
-0.000100505
6.05901e-05
1.53586e-05
-7.57988e-05
8.32788e-05
-3.75953e-05
-2.76266e-05
6.98124e-05
-6.50916e-05
2.08413e-05
3.24405e-05
-6.18952e-05
5.17035e-05
-1.05386e-05
-3.52536e-05
5.76316e-05
-4.31686e-05
1.11744e-06
4.16164e-05
-5.68117e-05
3.35567e-05
1.31104e-05
-5.10221e-05
5.29451e-05
-1.68369e-05
-3.13974e-05
5.62909e-05
-3.94365e-05
-6.17023e-06
4.58802e-05
-5.00934e-05
1.69216e-05
2.711e-05
-4.84766e-05
3.26144e-05
6.12749e-06
-3.73626e-05
3.87665e-05
-1.19662e-05
-2.10203e-05
3.5966e-05
-2.40459e-05
-3.74843e-06
2.65789e-05
-2.90899e-05
1.11031e-05
1.36896e-05
-2.77644e-05
2.15572e-05
2.36654e-07
-2.17663e-05
2.69809e-05
-1.15224e-05
-1.31682e-05
2.77787e-05
-2.02183e-05
-3.91159e-06
2.49815e-05
-2.53284e-05
4.49861e-06
1.98576e-05
-2.69905e-05
1.11115e-05
1.36189e-05
-2.57651e-05
1.55089e-05
7.24297e-06
-2.24142e-05
1.77025e-05
1.40258e-06
-1.77308e-05
1.79979e-05
-3.52668e-06
-1.24292e-05
1.6862e-05
-7.4103e-06
-7.0908e-06
1.48114e-05
-1.02787e-05
-2.14987e-06
1.23304e-05
-1.22513e-05
2.09709e-06
9.81637e-06
-1.34741e-05
5.47237e-06
7.55099e-06
-1.40778e-05
7.89812e-06
5.69013e-06
-1.41577e-05
9.38229e-06
4.27066e-06
-1.37745e-05
1.00091e-05
3.23085e-06
-1.2971e-05
9.9308e-06
2.44244e-06
-1.17967e-05
9.35549e-06
1.75159e-06
-1.03334e-05
8.52587e-06
1.02335e-06
-8.71063e-06
7.68717e-06
1.82291e-07
-7.10408e-06
7.04621e-06
-7.60533e-07
-5.71338e-06
6.72934e-06
-1.70351e-06
-4.72054e-06
6.75129e-06
-2.47877e-06
-4.23965e-06
7.00794e-06
-2.90294e-06
-4.27387e-06
7.3024e-06
-2.84257e-06
-4.69825e-06
7.40421e-06
-2.27365e-06
-5.28261e-06
7.12849e-06
-1.31062e-06
-5.75605e-06
6.40942e-06
-1.8634e-07
-5.89747e-06
5.33726e-06
8.1968e-07
-5.6201e-06
4.13568e-06
1.48473e-06
-5.01157e-06
3.07711e-06
1.73716e-06
-4.30186e-06
2.36353e-06
1.69445e-06
-3.75998e-06
2.0244e-06
1.61451e-06
-3.55734e-06
1.88804e-06
1.76813e-06
-3.66354e-06
1.6561e-06
2.28632e-06
-3.83805e-06
1.05989e-06
3.06366e-06
-3.74099e-06
2.38366e-08
3.78467e-06
-3.11967e-06
-1.26046e-06
4.07971e-06
-1.9706e-06
-2.41088e-06
3.73572e-06
-5.70724e-07
-3.05868e-06
2.83507e-06
6.63211e-07
-3.06507e-06
1.7196e-06
1.41736e-06
-2.60493e-06
7.80907e-07
1.66945e-06
-2.04132e-06
2.06086e-07
1.67902e-06
-1.65896e-06
-1.34395e-07
1.76336e-06
-1.44823e-06
-5.50568e-07
2.01412e-06
-1.12374e-06
-1.23008e-06
2.18778e-06
-3.94806e-07
-2.00943e-06
1.89398e-06
7.1486e-07
-2.4395e-06
9.60491e-07
1.78484e-06
-2.13692e-06
-3.34437e-07
2.27247e-06
-1.14174e-06
-1.40342e-06
1.94497e-06
5.47733e-08
-1.78792e-06
1.08271e-06
8.8145e-07
-1.51109e-06
2.35048e-07
1.13784e-06
-9.96542e-07
-2.63554e-07
1.08244e-06
-6.13334e-07
-5.32589e-07
1.05421e-06
-3.19135e-07
-8.72784e-07
1.03407e-06
1.8672e-07
-1.27682e-06
6.71332e-07
9.48571e-07
-1.32219e-06
-2.01039e-07
1.5041e-06
-6.55425e-07
-1.16533e-06
1.29484e-06
4.59603e-07
-1.50427e-06
3.37893e-07
1.25045e-06
-9.48399e-07
-6.6915e-07
1.19147e-06
-5.79483e-09
-1.03599e-06
5.37811e-07
5.9067e-07
-7.69334e-07
-4.76647e-08
6.63901e-07
-3.9323e-07
-3.01209e-07
5.91008e-07
-1.65e-07
-5.00408e-07
5.66028e-07
1.72783e-07
-7.72603e-07
2.72969e-07
7.28578e-07
-6.95164e-07
-4.57517e-07
9.73639e-07
4.51327e-08
-1.04079e-06
3.93003e-07
8.93009e-07
-7.46738e-07
-5.82899e-07
9.39449e-07
1.97998e-07
-9.42852e-07
1.65988e-07
7.77176e-07
-4.29525e-07
-4.9941e-07
5.45628e-07
1.84764e-07
-5.05821e-07
9.29275e-08
3.363e-07
-2.77143e-07
-8.70774e-08
3.3806e-07
-1.82103e-07
-2.74643e-07
4.15397e-07
1.10446e-07
-5.7128e-07
1.14749e-07
6.28264e-07
-3.54911e-07
-5.85759e-07
5.67095e-07
4.60896e-07
-7.18477e-07
-2.82765e-07
7.90294e-07
8.56301e-08
-7.78618e-07
9.74367e-08
6.92524e-07
-2.39536e-07
-5.50512e-07
3.22989e-07
3.76151e-07
-3.40405e-07
-1.93813e-07
2.94029e-07
2.51333e-08
-1.93863e-07
1.13429e-07
5.51117e-08
-2.11828e-07
1.04519e-07
2.66554e-07
-2.6728e-07
-2.79876e-07
4.17302e-07
2.58505e-07
-5.41878e-07
-2.11971e-07
6.32097e-07
1.50983e-07
-6.82916e-07
-8.59631e-08
6.92817e-07
2.58758e-08
-6.63201e-07
2.25742e-08
5.97684e-07
-5.53809e-08
-5.01408e-07
7.13355e-08
3.80458e-07
-7.18349e-08
-2.41448e-07
6.04581e-08
9.12609e-08
-4.23662e-08
6.30592e-08
2.35771e-08
-2.14323e-07
-1.01626e-08
3.55191e-07
7.4149e-09
-4.78222e-07
-1.90357e-08
5.76053e-07
4.64134e-08
-6.4177e-07
-8.80685e-08
6.69503e-07
1.39364e-07
-6.55241e-07
-1.92589e-07
5.97784e-07
2.37503e-07
-4.99725e-07
-2.62426e-07
3.68241e-07
2.55856e-07
-2.1546e-07
-2.08541e-07
5.81335e-08
1.15767e-07
8.36161e-08
2.04897e-08
-1.886e-07
-1.9003e-07
2.37851e-07
3.74088e-07
-2.18566e-07
-5.4668e-07
1.28065e-07
6.77964e-07
2.31565e-08
-7.39563e-07
-2.10365e-07
7.11256e-07
3.96525e-07
-5.87813e-07
-5.37854e-07
3.84213e-07
5.92823e-07
-1.37196e-07
-5.33345e-07
-9.86427e-08
3.55688e-07
2.61036e-07
-8.77166e-08
-2.95645e-07
-2.11135e-07
1.74052e-07
4.59763e-07
9.09693e-08
-5.75359e-07
-4.3913e-07
5.00044e-07
7.70688e-07
-2.26884e-07
-9.71041e-07
-1.84737e-07
9.48289e-07
6.14163e-07
-6.73419e-07
-9.10088e-07
2.07501e-07
9.42983e-07
3.00322e-07
-6.64192e-07
-6.53471e-07
1.47448e-07
6.82194e-07
4.12813e-07
-3.28049e-07
-7.60804e-07
-2.99377e-07
6.87111e-07
9.32285e-07
-1.46068e-07
-1.2395e-06
-6.76831e-07
9.84776e-07
1.40279e-06
-1.81753e-07
-1.61874e-06
-8.46402e-07
1.10631e-06
1.573e-06
-2.49569e-08
-1.5329e-06
-1.08421e-06
6.32415e-07
1.54147e-06
6.87391e-07
-9.42981e-07
-1.60125e-06
-4.8268e-07
1.37191e-06
1.85768e-06
8.6528e-08
-2.1175e-06
-1.95224e-06
7.72933e-07
2.86574e-06
1.52898e-06
-1.86225e-06
-3.189e-06
-7.06045e-07
2.71463e-06
3.0682e-06
-5.40205e-08
-3.16644e-06
-2.91109e-06
4.53731e-07
3.51551e-06
3.10974e-06
-6.37299e-07
-4.17761e-06
-3.67559e-06
9.69926e-07
5.26865e-06
4.32062e-06
-1.61029e-06
-6.54046e-06
-4.84222e-06
2.3172e-06
7.67282e-06
5.4014e-06
-2.62424e-06
-8.58295e-06
-6.45581e-06
2.15017e-06
9.45071e-06
8.45255e-06
-7.34926e-07
-1.04457e-05
-1.15528e-05
-1.69927e-06
1.13723e-05
1.55489e-05
5.40275e-06
-1.14536e-05
-1.99032e-05
-1.09039e-05
9.33104e-06
2.36983e-05
1.8763e-05
-3.24623e-06
-2.53479e-05
-2.88957e-05
-8.56437e-06
2.21468e-05
3.94933e-05
2.70238e-05
-1.00991e-05
-4.57315e-05
-5.04862e-05
-1.50955e-05
3.89175e-05
7.1881e-05
5.46354e-05
-7.73706e-06
-7.56313e-05
-9.98223e-05
-5.5368e-05
3.80132e-05
0.000123384
0.000139519
6.12922e-05
-7.72189e-05
-0.000194632
-0.000207397
-8.42461e-05
0.000124078
0.000302559
0.000332194
0.000161214
-0.000153084
-0.000458187
-0.000574255
-0.000387146
7.71138e-05
0.000636476
0.00101336
0.000955086
0.000365847
-0.000611037
-0.00160663
-0.00214335
-0.00181996
-0.000499583
0.00156938
0.00375199
0.00516403
0.00492554
0.00247099
-0.00216634
-0.00817631
-0.0139533
-0.0172477
-0.0154574
-0.006
0.0133045
0.0439073
0.0863172
0.140029
0.203599
0.274835
0.351069
0.429441
0.507177
0.581816
0.651368
0.714406
0.770076
0.818052
0.858445
0.891702
0.918503
0.939661
0.956039
0.968481
0.977759
0.98455
0.989429
0.992871
0.995262
0.996901
0.998009
0.998743
0.999215
0.99951
0.999694
0.999814
0.999896
0.99995
0.999977
0.999982
0.999977
0.999979
0.999992
1.00001
1.00002
1.00001
0.999991
0.999977
0.999981
1
1.00003
1.00003
1.00001
0.999977
0.99996
0.999973
1.00001
1.00005
1.00005
1.00001
0.999961
0.999929
0.999945
1.00001
1.00008
1.0001
1.00006
0.999962
0.999876
0.99986
0.999939
1.00008
1.00019
1.00021
1.00008
0.999876
0.999698
0.999668
0.999838
1.00015
1.00046
1.00058
1.00039
0.999922
0.999362
0.998987
0.999046
0.999635
1.00061
1.00161
1.00214
1.00182
1.0005
0.99843
0.996246
0.994835
0.995076
0.997531
1.00217
1.00817
1.01395
1.01725
1.01546
1.006
0.986695
0.95609
0.913682
0.859973
0.796404
0.725166
0.648929
0.570556
0.492823
0.418187
0.348635
0.285594
0.22992
0.181945
0.141556
0.108302
0.0815002
0.0603374
0.0439552
0.031515
0.0222427
0.015456
0.010576
0.00712729
0.00473115
0.00309387
0.00199334
0.00126545
0.000791648
0.000488059
0.000296544
0.000177582
0.000104813
6.09738e-05
3.49603e-05
1.97562e-05
1.10029e-05
6.03889e-06
3.26601e-06
1.74037e-06
9.13624e-07
4.72416e-07
2.40562e-07
1.20606e-07
5.95161e-08
2.88986e-08
1.38016e-08
6.48024e-09
2.9897e-09
1.35444e-09
6.02069e-10
2.6235e-10
1.11933e-10
4.66932e-11
1.90093e-11
7.53456e-12
2.8982e-12
1.07703e-12
3.84142e-13
1.30143e-13
4.11382e-14
1.17078e-14
2.73859e-15
3.45054e-16
-1.33216e-16
-1.43841e-16
-8.46032e-17
-4.05236e-17
-1.71756e-17
-6.61392e-18
-2.32383e-18
-7.3535e-19
-2.00936e-19
-4.13752e-20
-1.95187e-21
4.09864e-21
3.05189e-21
1.54008e-21
6.46609e-22
2.37077e-22
7.60943e-23
2.05715e-23
4.02142e-24
6.58055e-26
-4.61123e-25
-3.10509e-25
-1.45413e-25
-5.61375e-26
-1.84486e-26
-5.01895e-27
-9.73881e-28
-1.39462e-29
1.08661e-28
7.05718e-29
3.15724e-29
1.14581e-29
3.43726e-30
7.93382e-31
8.95304e-32
-3.731e-32
-3.34292e-32
-1.62147e-32
-6.06745e-33
-1.83692e-33
-4.22012e-34
-4.58956e-35
1.94948e-35
1.8293e-35
6.03115e-36
)
;

boundaryField
{
    sides
    {
        type            zeroGradient;
    }
    empty
    {
        type            empty;
    }
}


// ************************************************************************* //
