/*--------------------------------*- C++ -*----------------------------------*\
| =========                 |                                                 |
| \\      /  F ield         | OpenFOAM: The Open Source CFD Toolbox           |
|  \\    /   O peration     | Version:  2312                                  |
|   \\  /    A nd           | Website:  www.openfoam.com                      |
|    \\/     M anipulation  |                                                 |
\*---------------------------------------------------------------------------*/
FoamFile
{
    version     2.0;
    format      ascii;
    arch        "LSB;label=32;scalar=64";
    class       volScalarField;
    location    "3.5";
    object      T;
}
// * * * * * * * * * * * * * * * * * * * * * * * * * * * * * * * * * * * * * //

dimensions      [0 0 0 1 0 0 0];

internalField   nonuniform List<scalar> 
1000
(
2.25293e-307
-8.50523e-307
7.1826e-306
-5.7093e-305
4.53555e-304
-3.59162e-303
2.83533e-302
-2.23134e-301
1.75053e-300
-1.36903e-299
1.06731e-298
-8.29472e-298
6.42595e-297
-4.96244e-296
3.82006e-295
-2.93129e-294
2.2421e-293
-1.70945e-292
1.29914e-291
-9.84129e-291
7.43083e-290
-5.59254e-289
4.19528e-288
-3.13682e-287
2.3377e-286
-1.73642e-285
1.28553e-284
-9.48562e-284
6.97591e-283
-5.11308e-282
3.73514e-281
-2.71936e-280
1.97313e-279
-1.42683e-278
1.02828e-277
-7.3852e-277
5.28596e-276
-3.77043e-275
2.68013e-274
-1.89851e-273
1.34017e-272
-9.42731e-272
6.60833e-271
-4.61601e-270
3.21296e-269
-2.22845e-268
1.54012e-267
-1.0606e-266
7.2776e-266
-4.97576e-265
3.38969e-264
-2.30081e-263
1.55603e-262
-1.04849e-261
7.03902e-261
-4.70821e-260
3.13754e-259
-2.08307e-258
1.37783e-257
-9.07935e-257
5.96041e-256
-3.89809e-255
2.53966e-254
-1.64831e-253
1.0657e-252
-6.86365e-252
4.40346e-251
-2.81413e-250
1.79141e-249
-1.13591e-248
7.17424e-248
-4.51324e-247
2.82795e-246
-1.76489e-245
1.09702e-244
-6.79143e-244
4.1874e-243
-2.57131e-242
1.57248e-241
-9.57695e-241
5.80859e-240
-3.50838e-239
2.11021e-238
-1.26392e-237
7.53835e-237
-4.47701e-236
2.64756e-235
-1.55897e-234
9.14015e-234
-5.33561e-233
3.10112e-232
-1.79451e-231
1.03385e-230
-5.92979e-230
3.38596e-229
-1.92474e-228
1.08919e-227
-6.13559e-227
3.44053e-226
-1.92042e-225
1.06698e-224
-5.90057e-224
3.24785e-223
-1.7793e-222
9.70151e-222
-5.26448e-221
2.84303e-220
-1.52794e-219
8.1717e-219
-4.34898e-218
2.30312e-217
-1.21362e-216
6.36316e-216
-3.31948e-215
1.7229e-214
-8.89658e-214
4.57031e-213
-2.33566e-212
1.1874e-211
-6.00468e-211
3.02045e-210
-1.5112e-209
7.52009e-209
-3.72182e-208
1.83188e-207
-8.96664e-207
4.36447e-206
-2.11242e-205
1.01661e-204
-4.86446e-204
2.31416e-203
-1.09448e-202
5.1458e-202
-2.40494e-201
1.11722e-200
-5.15849e-200
2.3672e-199
-1.07956e-198
4.89242e-198
-2.20313e-197
9.85747e-197
-4.38193e-196
1.93512e-195
-8.48904e-195
3.69897e-194
-1.60081e-193
6.8801e-193
-2.93635e-192
1.24433e-191
-5.23528e-191
2.18661e-190
-9.06537e-190
3.73021e-189
-1.52323e-188
6.17201e-188
-2.4812e-187
9.89498e-187
-3.91401e-186
1.5354e-185
-5.9723e-185
2.30311e-184
-8.80362e-184
3.33506e-183
-1.25186e-182
4.65506e-182
-1.71441e-181
6.25207e-181
-2.25702e-180
8.06368e-180
-2.85026e-179
9.9643e-179
-3.44403e-178
1.17646e-177
-3.96996e-177
1.32279e-176
-4.34971e-176
1.4107e-175
-4.50944e-175
1.41967e-174
-4.39783e-174
1.33915e-173
-4.00328e-173
1.17315e-172
-3.36392e-172
9.41643e-172
-2.56552e-171
6.77589e-171
-1.72506e-170
4.19786e-170
-9.63224e-170
2.0332e-169
-3.74109e-169
5.077e-169
-2.48482e-170
-3.26539e-168
1.62716e-167
-5.81859e-167
1.76424e-166
-4.72963e-166
1.12394e-165
-2.29526e-165
3.60092e-165
-2.06832e-165
-1.39412e-164
7.99616e-164
-2.86652e-163
8.24606e-163
-1.98446e-162
3.85465e-162
-4.90633e-162
-2.56089e-162
4.40178e-161
-1.85647e-160
5.61932e-160
-1.34801e-159
2.44863e-159
-2.27058e-159
-5.74683e-159
4.05493e-158
-1.43557e-157
3.74236e-157
-7.23212e-157
7.57331e-157
1.36638e-156
-1.08686e-155
3.84009e-155
-9.59347e-155
1.6539e-154
-9.06622e-155
-6.78296e-154
3.46598e-153
-1.03026e-152
2.11299e-152
-2.24869e-152
-4.15716e-152
3.16616e-151
-1.04313e-150
2.26996e-150
-2.64069e-150
-3.70544e-150
3.18514e-149
-1.05055e-148
2.19827e-148
-2.12411e-148
-5.4846e-148
3.51854e-147
-1.0402e-146
1.85711e-146
-6.82444e-147
-9.06365e-146
3.93453e-145
-9.43242e-145
1.13697e-144
1.59396e-144
-1.31765e-143
3.9703e-143
-6.64771e-143
-1.52781e-145
4.15948e-142
-1.53624e-141
3.05484e-141
-1.60555e-141
-1.31643e-140
5.76338e-140
-1.25817e-139
9.32749e-140
4.47082e-139
-2.16196e-138
4.85874e-138
-3.68877e-138
-1.71044e-137
8.20709e-137
-1.7791e-136
1.05932e-136
7.31148e-136
-3.13165e-135
6.09021e-135
-1.27229e-135
-3.29958e-134
1.17299e-133
-1.8584e-133
-1.0502e-133
1.47421e-132
-4.14477e-132
4.41546e-132
1.09898e-131
-6.18111e-131
1.29414e-130
-3.40133e-131
-6.75322e-130
2.3086e-129
-3.07632e-129
-4.4345e-129
3.2069e-128
-7.08587e-128
2.16612e-128
3.59738e-127
-1.2035e-126
1.41833e-126
3.00958e-126
-1.72816e-125
3.23668e-125
9.28127e-126
-2.19198e-124
5.70857e-124
-3.18919e-124
-2.48498e-123
8.84817e-123
-9.92135e-123
-2.48509e-122
1.26781e-121
-1.99298e-121
-2.06541e-121
1.72784e-120
-3.40435e-120
-1.10232e-120
2.28582e-119
-5.33832e-119
5.10645e-120
2.98615e-118
-7.95155e-118
2.83428e-118
3.91211e-117
-1.14612e-116
5.82393e-117
5.20813e-116
-1.61549e-115
9.21248e-116
7.11041e-115
-2.23811e-114
1.22984e-114
9.98463e-114
-3.04932e-113
1.35916e-113
1.43634e-112
-4.07016e-112
1.02762e-112
2.09613e-111
-5.27645e-111
-2.50833e-112
3.06231e-110
-6.54294e-110
-3.24372e-110
4.41212e-109
-7.55526e-109
-9.04305e-109
6.16831e-108
-7.69239e-108
-1.89904e-107
8.21084e-107
-5.90834e-107
-3.43408e-106
1.01403e-105
-6.92538e-107
-5.54765e-105
1.11104e-104
9.73735e-105
-8.05115e-104
9.70159e-104
2.6784e-103
-1.03361e-102
3.99374e-103
5.01391e-102
-1.11925e-101
-7.91188e-102
7.57732e-101
-8.79786e-101
-2.66601e-100
9.38492e-100
-1.14305e-100
-4.96642e-99
8.81915e-99
1.28309e-98
-6.89914e-98
4.00007e-98
3.13577e-97
-7.078e-97
-6.15245e-97
4.78958e-96
-3.88396e-96
-2.01976e-95
5.08161e-95
3.53168e-95
-3.25509e-94
2.71989e-94
1.37327e-93
-3.36856e-93
-2.77408e-93
2.18423e-92
-1.42591e-92
-9.82416e-92
2.03937e-91
2.63523e-91
-1.42156e-90
3.68439e-91
7.11341e-90
-1.05833e-89
-2.51152e-89
8.56926e-89
3.35357e-89
-4.91478e-88
3.76266e-88
2.17492e-87
-4.3555e-87
-6.76187e-87
3.00266e-86
4.256e-87
-1.61665e-85
1.40245e-85
7.06157e-85
-1.4174e-84
-2.32813e-84
9.55672e-84
3.31334e-84
-5.25899e-83
2.93747e-83
2.46711e-82
-3.61763e-82
-9.71879e-82
2.65862e-81
2.87717e-81
-1.59191e-80
-2.58401e-81
8.35469e-80
-4.78834e-80
-3.92928e-79
5.18519e-79
1.65046e-78
-3.735e-78
-5.97653e-78
2.27256e-77
1.63789e-77
-1.24813e-76
-1.05709e-77
6.36075e-76
-2.93333e-76
-3.04733e-75
3.03238e-75
1.37989e-74
-2.17894e-74
-5.9037e-74
1.35115e-73
2.36988e-73
-7.70644e-73
-8.76363e-73
4.15998e-72
2.85235e-72
-2.15929e-71
-7.0689e-72
1.08878e-70
2.99672e-72
-5.37218e-70
1.24599e-70
2.60859e-69
-1.20065e-69
-1.25243e-68
8.28441e-69
5.96975e-68
-4.99061e-68
-2.83506e-67
2.78356e-67
1.34559e-66
-1.47409e-66
-6.39895e-66
7.50504e-66
3.05471e-65
-3.69675e-65
-1.4655e-64
1.76597e-64
7.06755e-64
-8.17641e-64
-3.42417e-63
3.65471e-63
1.66424e-62
-1.56371e-62
-8.09654e-62
6.29836e-62
3.93169e-61
-2.30579e-61
-1.8993e-60
6.99788e-61
9.09199e-60
-1.1376e-60
-4.29376e-59
-6.23062e-60
1.98994e-58
8.91502e-59
-8.99119e-58
-7.15537e-58
3.92615e-57
4.75961e-57
-1.63565e-56
-2.8538e-56
6.3629e-56
1.58982e-55
-2.21462e-55
-8.32977e-55
6.1513e-55
4.11834e-54
-6.98805e-55
-1.91576e-53
-7.26114e-54
8.30268e-53
8.08965e-53
-3.282e-52
-5.65999e-52
1.12795e-51
3.27535e-51
-2.92156e-51
-1.6683e-50
1.59342e-51
7.58124e-50
4.76061e-50
-3.0309e-49
-4.40494e-49
1.0083e-48
2.74707e-48
-2.26418e-48
-1.39986e-47
-1.67481e-48
6.02566e-47
5.9511e-47
-2.12095e-46
-4.5107e-46
5.15939e-46
2.44873e-45
6.46356e-47
-1.05906e-44
-1.06203e-44
3.53651e-44
8.15885e-44
-6.919e-44
-4.23559e-43
-1.49278e-43
1.65878e-42
2.44219e-42
-4.40323e-42
-1.53492e-41
1.36109e-42
6.68418e-41
7.20947e-41
-1.98046e-40
-5.41745e-40
1.79175e-40
2.50151e-39
2.35653e-39
-7.52739e-39
-1.94574e-38
6.35446e-39
8.94271e-38
9.16775e-38
-2.48868e-37
-7.1639e-37
4.97587e-38
3.02571e-36
4.02582e-36
-6.74564e-36
-2.61541e-35
-1.01692e-35
9.19856e-35
1.77162e-34
-1.10048e-34
-8.8481e-34
-9.00475e-34
2.19206e-33
7.03359e-33
2.2037e-33
-2.47531e-32
-4.83831e-32
2.08986e-32
2.27016e-31
2.89972e-31
-4.20415e-31
-1.85267e-30
-1.46782e-30
4.80508e-30
1.40388e-29
5.48952e-30
-4.53821e-29
-1.01551e-28
-3.84242e-30
3.88087e-28
7.17442e-28
-1.92782e-28
-3.12544e-27
-5.05607e-27
2.55535e-27
2.42023e-26
3.62187e-26
-2.2968e-26
-1.82171e-25
-2.67151e-25
1.66217e-25
1.33735e-24
2.03478e-24
-9.46836e-25
-9.53921e-24
-1.58655e-23
3.06176e-24
6.53262e-23
1.24432e-22
1.88037e-23
-4.19474e-22
-9.59661e-22
-5.11899e-22
2.41046e-21
7.09139e-21
6.69647e-21
-1.10322e-20
-4.86257e-20
-6.8389e-20
2.18155e-20
2.94594e-19
5.90344e-19
2.9696e-19
-1.41761e-18
-4.33121e-18
-5.06485e-18
3.41194e-18
2.5839e-17
4.92814e-17
2.72388e-17
-1.06282e-16
-3.5101e-16
-4.84183e-16
2.8681e-17
1.73523e-15
4.18757e-15
4.47485e-15
-3.07797e-15
-2.29176e-14
-4.74923e-14
-4.34183e-14
4.85973e-14
2.70158e-13
5.35646e-13
4.93009e-13
-4.8683e-13
-2.90451e-12
-6.06288e-12
-6.56688e-12
2.27668e-12
2.74503e-11
6.65709e-11
9.16829e-11
3.55627e-11
-1.96198e-10
-6.52632e-10
-1.17972e-09
-1.2109e-09
3.37393e-10
4.74273e-09
1.23033e-08
2.00699e-08
1.89771e-08
-7.64175e-09
-8.01501e-08
-2.07743e-07
-3.58053e-07
-4.13217e-07
-1.2952e-07
8.58075e-07
2.91667e-06
6.09291e-06
9.5151e-06
1.05337e-05
3.80631e-06
-1.91469e-05
-6.8954e-05
-0.000154522
-0.000274445
-0.000401757
-0.000460498
-0.000293741
0.000375338
0.00198516
0.00517306
0.0107987
0.0199423
0.0338684
0.0539463
0.081529
0.117795
0.16357
0.219154
0.284178
0.357523
0.437319
0.521047
0.605718
0.688144
0.765231
0.834284
0.893262
0.940953
0.977044
1.00208
1.01732
1.02454
1.02576
1.02299
1.01808
1.01249
1.00729
1.00309
1.00016
0.998447
0.99775
0.997767
0.998195
0.99878
0.999343
0.999784
1.00007
1.00021
1.00023
1.0002
1.00013
1.00007
1.00002
0.99999
0.999977
0.999976
0.999982
0.999989
0.999996
1
1
1
1
1
1
1
1
1
1
1
1
1
1
1
1
1
1
1
1
1
1
1
1
1
1
1
1
1
1
1
1
1
1
1
0.999999
0.999997
0.999994
0.99999
0.999989
0.999996
1.00002
1.00007
1.00015
1.00027
1.0004
1.00046
1.00029
0.999625
0.998015
0.994827
0.989201
0.980058
0.966132
0.946054
0.918471
0.882205
0.83643
0.780846
0.715822
0.642477
0.562681
0.478953
0.394282
0.311856
0.234769
0.165716
0.106738
0.059047
0.022956
-0.00208036
-0.0173247
-0.0245437
-0.0257577
-0.0229948
-0.0180813
-0.0124946
-0.00728919
-0.00309207
-0.000155648
0.00155326
0.00224982
0.00223271
0.00180475
0.00121984
0.00065689
0.000216472
-6.69704e-05
-0.00020503
-0.000234086
-0.000197492
-0.000133518
-6.93055e-05
-1.9747e-05
1.04531e-05
2.33044e-05
2.40223e-05
1.83141e-05
1.07612e-05
4.20889e-06
-1.3298e-07
-2.22154e-06
-2.63113e-06
-2.10184e-06
-1.25937e-06
-5.00615e-07
2.44929e-09
2.38373e-07
2.7845e-07
2.14096e-07
1.19861e-07
4.00973e-08
-8.62732e-09
-2.80227e-08
-2.79416e-08
-1.90226e-08
-8.94452e-09
-1.58445e-09
2.17254e-09
3.09838e-09
2.46818e-09
1.36544e-09
4.27891e-10
-1.19505e-10
-3.11079e-10
-2.83879e-10
-1.72872e-10
-6.5315e-11
2.71327e-12
2.98983e-11
3.02788e-11
1.94039e-11
7.85319e-12
2.6936e-13
-2.88901e-12
-3.07378e-12
-1.98826e-12
-8.02338e-13
-2.7151e-14
2.8808e-13
2.9994e-13
1.87781e-13
7.07748e-14
-2.22374e-15
-2.93509e-14
-2.80088e-14
-1.62696e-14
-5.27014e-15
1.00719e-15
2.94878e-15
2.46457e-15
1.26954e-15
3.02235e-16
-1.79385e-16
-2.80706e-16
-1.99632e-16
-8.58721e-17
-8.31918e-18
2.31233e-17
2.4473e-17
1.44174e-17
4.61214e-18
-8.57199e-19
-2.40777e-18
-1.89564e-18
-8.82396e-19
-1.4023e-19
1.78787e-19
2.08968e-19
1.25761e-19
4.0799e-20
-6.5218e-21
-1.95992e-20
-1.50952e-20
-6.68729e-21
-8.0731e-22
1.52423e-21
1.59418e-21
8.78154e-22
2.33669e-22
-8.68876e-23
-1.50905e-22
-1.00758e-22
-3.69396e-23
1.1672e-24
1.28712e-23
1.04835e-23
4.705e-24
6.08593e-25
-9.82279e-25
-1.0097e-24
-5.28851e-25
-1.21046e-25
6.52663e-26
9.12531e-26
5.45098e-26
1.63321e-26
-3.4723e-27
-7.81959e-27
-5.26194e-27
-1.86239e-27
9.83935e-29
6.41144e-28
4.82245e-28
1.91582e-28
7.93605e-30
-5.07522e-29
-4.23722e-29
-1.83064e-29
-1.86562e-30
3.91584e-30
3.59592e-30
1.65109e-30
2.33767e-31
-2.97541e-31
-2.96447e-31
-1.41928e-31
-2.36387e-32
2.25013e-32
2.38429e-32
1.16988e-32
2.10511e-33
-1.70943e-33
-1.87639e-33
-9.28082e-34
-1.70193e-34
1.31245e-34
1.4472e-34
7.09937e-35
1.26111e-35
-1.01943e-35
-1.09422e-35
-5.23826e-36
-8.53152e-37
7.97857e-37
8.10305e-37
3.724e-37
5.16299e-38
-6.24403e-38
-5.86547e-38
-2.54417e-38
-2.63898e-39
4.84218e-39
4.13833e-39
1.66289e-39
9.24852e-41
-3.6885e-40
-2.83555e-40
-1.03252e-40
1.09269e-42
2.73903e-41
1.8786e-41
6.02197e-42
-6.31045e-43
-1.97034e-42
-1.19708e-42
-3.23475e-43
8.06275e-44
1.36574e-43
7.28836e-44
1.5382e-44
-7.75684e-45
-9.0774e-45
-4.20234e-45
-5.83332e-46
6.45063e-46
5.75669e-46
2.26464e-46
1.01487e-47
-4.84903e-47
-3.46322e-47
-1.11708e-47
1.11146e-48
2.92407e-48
)
;

boundaryField
{
    sides
    {
        type            zeroGradient;
    }
    empty
    {
        type            empty;
    }
}


// ************************************************************************* //
