/*--------------------------------*- C++ -*----------------------------------*\
| =========                 |                                                 |
| \\      /  F ield         | OpenFOAM: The Open Source CFD Toolbox           |
|  \\    /   O peration     | Version:  2312                                  |
|   \\  /    A nd           | Website:  www.openfoam.com                      |
|    \\/     M anipulation  |                                                 |
\*---------------------------------------------------------------------------*/
FoamFile
{
    version     2.0;
    format      ascii;
    arch        "LSB;label=32;scalar=64";
    class       volScalarField;
    location    "4.3";
    object      T;
}
// * * * * * * * * * * * * * * * * * * * * * * * * * * * * * * * * * * * * * //

dimensions      [0 0 0 1 0 0 0];

internalField   nonuniform List<scalar> 
1000
(
0
0
0
0
0
0
0
0
0
0
0
0
0
0
0
0
0
0
0
0
0
0
0
0
0
0
0
0
0
0
0
0
0
0
0
0
0
0
0
0
0
0
0
0
0
0
0
0
0
0
0
0
0
0
0
0
0
0
0
0
0
0
0
0
0
0
0
0
0
0
0
0
0
0
0
0
0
0
0
0
0
0
0
0
0
0
0
0
0
0
0
0
0
0
0
0
0
0
0
0
0
0
0
0
0
0
0
0
0
0
0
0
0
0
0
0
0
0
0
0
0
0
0
0
0
0
0
0
0
0
0
0
0
0
0
0
0
0
0
0
0
0
0
0
0
0
0
0
0
0
0
0
0
0
0
0
0
0
0
0
0
0
0
0
0
0
0
0
0
0
0
0
0
0
0
0
0
0
0
0
0
0
0
0
0
0
0
0
0
0
0
0
0
0
0
0
0
0
0
0
0
0
0
0
0
0
0
0
0
0
0
0
0
0
0
0
0
0
0
0
0
0
0
0
0
0
0
0
0
0
0
0
0
0
0
0
0
0
0
0
0
0
0
0
0
0
0
0
0
0
0
0
0
0
0
0
0
0
0
0
0
0
0
0
0
0
0
0
0
0
0
0
0
0
0
0
0
0
0
0
0
0
0
0
0
0
0
0
0
0
0
0
0
0
0
0
0
0
0
0
0
0
0
0
0
0
0
0
0
0
0
0
0
0
0
0
0
0
0
0
0
0
0
0
0
0
0
0
0
0
0
0
0
0
0
0
0
0
0
0
0
0
0
0
0
0
0
0
0
0
0
0
0
0
0
0
0
0
0
0
0
0
0
0
0
0
0
0
0
0
0
0
0
0
0
0
0
0
0
0
0
0
0
0
0
0
0
0
0
0
0
0
0
0
0
0
0
0
0
0
0
0
0
0
8.08451e-154
-5.4271e-138
3.26103e-130
-1.86537e-126
-3.3669e-124
-2.71916e-122
-1.16931e-120
-1.32186e-119
1.93382e-117
1.73662e-115
9.04389e-114
3.57906e-112
1.16976e-110
3.28857e-109
8.1506e-108
1.81106e-106
3.65254e-105
6.75034e-104
1.152e-102
1.82687e-101
2.70644e-100
3.76256e-99
4.9279e-98
6.10121e-97
7.16225e-96
7.99322e-95
8.50092e-94
8.63392e-93
8.3904e-92
7.81525e-91
6.98829e-90
6.00738e-89
4.97102e-88
3.96424e-87
3.04991e-86
2.26589e-85
1.627e-84
1.12994e-83
7.59489e-83
4.94341e-82
3.11715e-81
1.9048e-80
1.12817e-79
6.47641e-79
3.60277e-78
1.94121e-77
1.01224e-76
5.1013e-76
2.47952e-75
1.15863e-74
5.1787e-74
2.19564e-73
8.70017e-73
3.12783e-72
9.48218e-72
1.81353e-71
-4.0799e-71
-7.59447e-70
-5.98141e-69
-3.77143e-68
-2.12508e-67
-1.11391e-66
-5.53763e-66
-2.63947e-65
-1.21442e-64
-5.41811e-64
-2.35152e-63
-9.95175e-63
-4.11426e-62
-1.66398e-61
-6.59134e-61
-2.55967e-60
-9.7528e-60
-3.64849e-59
-1.34091e-58
-4.84418e-58
-1.72102e-57
-6.01573e-57
-2.06968e-56
-7.01128e-56
-2.33951e-55
-7.69194e-55
-2.49272e-54
-7.96481e-54
-2.51002e-53
-7.80387e-53
-2.39444e-52
-7.2524e-52
-2.16904e-51
-6.40738e-51
-1.86996e-50
-5.39303e-50
-1.53739e-49
-4.33292e-49
-1.20756e-48
-3.3285e-48
-9.07539e-48
-2.44803e-47
-6.53358e-47
-1.72545e-46
-4.50916e-46
-1.16613e-45
-2.98446e-45
-7.5587e-45
-1.89447e-44
-4.69867e-44
-1.15318e-43
-2.80056e-43
-6.72985e-43
-1.60021e-42
-3.76496e-42
-8.76538e-42
-2.01945e-41
-4.60453e-41
-1.03917e-40
-2.32169e-40
-5.13612e-40
-1.12535e-39
-2.44284e-39
-5.25529e-39
-1.12087e-38
-2.37103e-38
-4.97631e-38
-1.03664e-37
-2.14407e-37
-4.40405e-37
-8.9855e-37
-1.82108e-36
-3.66585e-36
-7.32781e-36
-1.45397e-35
-2.86203e-35
-5.58497e-35
-1.0795e-34
-2.06464e-34
-3.90297e-34
-7.28332e-34
-1.33979e-33
-2.42568e-33
-4.31467e-33
-7.52448e-33
-1.28334e-32
-2.13401e-32
-3.44587e-32
-5.37343e-32
-8.02701e-32
-1.13408e-31
-1.48128e-31
-1.70449e-31
-1.50139e-31
-3.04984e-32
2.83356e-31
9.32476e-31
2.09538e-30
3.93618e-30
6.4615e-30
9.20958e-30
1.06649e-29
7.28304e-30
-7.92697e-30
-4.70722e-29
-1.28489e-28
-2.75154e-28
-5.05635e-28
-8.08205e-28
-1.08094e-27
-1.00875e-27
1.6885e-28
4.06708e-27
1.38338e-26
3.52041e-26
7.80321e-26
1.58337e-25
3.00731e-25
5.40739e-25
9.25903e-25
1.51355e-24
2.36166e-24
3.50751e-24
4.92673e-24
6.46452e-24
7.73191e-24
7.96625e-24
5.87151e-24
-5.14288e-25
-1.38214e-23
-3.70289e-23
-7.25043e-23
-1.19918e-22
-1.7236e-22
-2.0982e-22
-1.89136e-22
-2.97382e-23
4.04788e-22
1.32772e-21
3.04842e-21
5.98087e-21
1.06261e-20
1.75048e-20
2.70056e-20
3.91068e-20
5.29213e-20
6.60213e-20
7.35224e-20
6.69596e-20
3.30888e-20
-4.70936e-20
-1.98592e-19
-4.51088e-19
-8.34892e-19
-1.37264e-18
-2.06505e-18
-2.86899e-18
-3.6671e-18
-4.2294e-18
-4.17056e-18
-2.90803e-18
3.65286e-19
6.67121e-18
1.71664e-17
3.29437e-17
5.46553e-17
8.19008e-17
1.12369e-16
1.40838e-16
1.58368e-16
1.51653e-16
9.98163e-17
-3.21279e-17
-3.07697e-16
-8.31139e-16
-1.68525e-15
-2.76608e-15
-3.68716e-15
-2.99336e-15
3.72668e-15
1.55599e-14
2.23627e-14
8.74023e-15
-3.33833e-14
-7.18331e-14
-5.18534e-14
5.78775e-14
1.92364e-13
1.84432e-13
-6.75458e-14
-4.66883e-13
-5.75793e-13
-5.22909e-14
1.02013e-12
1.6507e-12
7.16665e-13
-1.91032e-12
-4.32185e-12
-3.36859e-12
2.47991e-12
1.04387e-11
1.1619e-11
8.86432e-13
-2.04952e-11
-3.46549e-11
-2.04385e-11
2.87435e-11
8.62562e-11
8.83398e-11
4.49182e-14
-1.6395e-10
-2.74287e-10
-1.79651e-10
1.82481e-10
6.50288e-10
7.75981e-10
2.39105e-10
-9.90721e-10
-2.19067e-09
-2.08278e-09
5.73344e-11
3.90021e-09
6.86728e-09
5.55855e-09
-1.76625e-09
-1.33925e-08
-2.11716e-08
-1.58688e-08
7.17336e-09
4.22684e-08
6.5332e-08
5.02377e-08
-1.66076e-08
-1.21696e-07
-2.02397e-07
-1.77715e-07
-6.83798e-10
3.12511e-07
6.1736e-07
6.4476e-07
2.57037e-07
-6.16636e-07
-1.69822e-06
-2.28181e-06
-1.72865e-06
3.46995e-07
3.73733e-06
7.09368e-06
7.85027e-06
4.57645e-06
-3.85623e-06
-1.61193e-05
-2.72311e-05
-2.86181e-05
-1.66769e-05
1.28892e-05
5.66796e-05
0.000100249
0.000116491
8.84998e-05
6.76075e-08
-0.000150339
-0.000333438
-0.000483193
-0.000497662
-0.000334782
7.33766e-05
0.000729524
0.00154434
0.0022947
0.00261688
0.00226978
0.000996939
-0.00143738
-0.0050367
-0.00950059
-0.0140888
-0.0175981
-0.0181808
-0.0152962
-0.00721929
0.00765765
0.030666
0.0627107
0.104145
0.154701
0.213488
0.279057
0.349521
0.42272
0.496405
0.56841
0.636818
0.700068
0.757032
0.807036
0.849835
0.885565
0.914661
0.937771
0.955672
0.969187
0.979129
0.986248
0.991205
0.994555
0.996749
0.998138
0.998984
0.999479
0.999753
0.999896
0.999964
0.999993
1
1
1
1
1
1
1
1
1
1
1
1
1
1
1
1
1
1
1
1
1
1
1
1
0.999999
0.999999
1
1
1
1
1
1
0.999996
0.999993
0.999992
0.999995
1
1.00002
1.00003
1.00003
1.00002
0.999987
0.999943
0.9999
0.999884
0.999912
1
1.00015
1.00033
1.00048
1.0005
1.00033
0.999926
0.999269
0.998454
0.997705
0.997385
0.997734
0.999007
1.00144
1.00504
1.00951
1.01409
1.01759
1.01817
1.01528
1.00719
0.992304
0.969283
0.937227
0.895781
0.845216
0.786422
0.720848
0.650383
0.577184
0.503504
0.431505
0.363106
0.299864
0.242909
0.192915
0.150125
0.114403
0.0853143
0.0622102
0.0443147
0.0308029
0.0208638
0.0137471
0.00879233
0.00544319
0.00324964
0.00186127
0.00101517
0.000521279
0.000247227
0.000104415
3.60167e-05
7.45347e-06
7.8605e-08
6.28117e-17
6.23275e-17
6.13038e-17
5.9644e-17
5.74702e-17
5.48923e-17
5.20116e-17
4.89188e-17
4.56939e-17
4.24067e-17
3.91165e-17
3.58732e-17
3.27176e-17
2.96821e-17
2.67916e-17
2.40644e-17
2.15125e-17
1.91431e-17
1.69588e-17
1.49586e-17
1.31385e-17
1.14922e-17
1.00117e-17
8.68744e-18
7.50916e-18
6.46603e-18
5.54705e-18
4.74125e-18
4.03792e-18
3.42674e-18
2.89793e-18
2.44232e-18
2.05138e-18
1.71728e-18
1.43288e-18
1.19171e-18
9.87964e-19
8.16479e-19
6.72664e-19
5.52483e-19
4.52403e-19
3.69347e-19
3.00651e-19
2.44021e-19
1.97489e-19
1.59378e-19
1.28261e-19
1.02934e-19
8.23829e-20
6.5757e-20
5.23466e-20
4.15613e-20
3.29123e-20
2.59962e-20
2.04811e-20
1.60955e-20
1.26176e-20
9.86677e-21
7.69691e-21
5.98978e-21
4.65016e-21
3.60162e-21
2.78299e-21
2.14545e-21
1.65016e-21
1.26633e-21
9.6958e-22
7.40711e-22
5.6461e-22
4.29428e-22
3.25898e-22
2.4679e-22
1.86482e-22
1.40609e-22
1.05794e-22
7.94308e-23
5.95114e-23
4.44938e-23
3.31964e-23
2.47161e-23
1.83641e-23
1.36164e-23
1.00754e-23
7.43998e-24
5.48271e-24
4.03213e-24
2.95933e-24
2.16756e-24
1.58443e-24
1.15584e-24
8.41493e-25
6.11408e-25
4.43345e-25
3.20836e-25
2.31717e-25
1.67019e-25
1.20146e-25
8.62563e-26
6.18028e-26
4.41941e-26
3.15399e-26
2.24644e-26
1.59688e-26
1.1329e-26
8.02147e-27
5.66839e-27
3.99771e-27
2.81389e-27
1.97674e-27
1.38592e-27
9.69788e-28
6.77272e-28
4.72062e-28
3.28387e-28
2.27994e-28
1.57984e-28
1.09259e-28
7.54143e-29
5.19524e-29
3.57202e-29
2.4512e-29
1.67881e-29
1.14758e-29
7.82933e-30
5.33122e-30
)
;

boundaryField
{
    sides
    {
        type            zeroGradient;
    }
    empty
    {
        type            empty;
    }
}


// ************************************************************************* //
