/*--------------------------------*- C++ -*----------------------------------*\
| =========                 |                                                 |
| \\      /  F ield         | OpenFOAM: The Open Source CFD Toolbox           |
|  \\    /   O peration     | Version:  2312                                  |
|   \\  /    A nd           | Website:  www.openfoam.com                      |
|    \\/     M anipulation  |                                                 |
\*---------------------------------------------------------------------------*/
FoamFile
{
    version     2.0;
    format      ascii;
    arch        "LSB;label=32;scalar=64";
    class       volScalarField;
    location    "1";
    object      T;
}
// * * * * * * * * * * * * * * * * * * * * * * * * * * * * * * * * * * * * * //

dimensions      [0 0 0 1 0 0 0];

internalField   nonuniform List<scalar> 
1000
(
0
0
0
0
0
0
0
0
0
0
0
0
0
0
0
0
0
0
0
0
0
0
0
0
0
0
0
0
0
0
0
0
0
0
0
0
0
0
0
0
0
0
0
0
0
0
0
0
0
0
0
0
0
0
0
0
0
0
0
0
0
0
0
0
0
0
0
0
0
0
0
0
0
0
0
0
0
0
0
0
0
0
0
0
0
0
0
0
0
0
0
0
0
0
0
0
0
0
0
0
0
0
0
0
0
0
0
0
0
0
0
0
0
0
0
0
0
0
0
0
0
0
0
0
0
0
0
0
0
0
0
0
0
0
0
0
0
0
0
0
0
0
0
0
0
0
0
0
0
0
0
0
0
0
0
0
0
0
0
0
0
0
0
0
0
0
0
0
0
0
0
0
0
0
0
0
0
0
0
0
0
0
0
0
0
0
0
0
0
0
0
0
0
0
0
0
0
0
0
0
0
0
0
0
0
0
0
0
0
0
0
0
0
0
0
0
0
0
0
0
0
0
0
0
0
0
0
0
0
0
0
0
0
0
0
0
0
0
0
0
0
0
0
0
0
0
0
0
0
0
0
0
0
0
0
0
0
0
0
0
0
0
0
0
0
0
0
0
0
0
0
0
0
0
0
0
0
0
0
0
0
0
0
0
0
0
0
0
0
0
0
0
0
0
0
0
0
0
0
0
0
0
0
0
0
0
0
0
0
0
0
0
0
0
0
0
0
0
0
0
0
0
0
0
0
0
0
0
0
0
0
0
0
0
0
0
0
0
0
0
0
0
0
0
0
0
0
0
0
0
0
0
0
0
0
0
0
0
0
0
0
0
0
0
0
0
0
0
0
0
0
0
0
0
0
0
0
0
0
0
0
0
0
0
0
0
0
0
0
0
0
0
0
0
0
0
0
0
0
0
0
0
0
0
0
0
0
0
0
0
0
0
0
0
0
0
0
0
0
0
0
0
0
0
0
0
0
0
0
0
0
0
0
0
0
0
0
0
0
0
0
0
0
0
0
0
0
0
0
0
2.78317e-29
1.79894e-27
5.82087e-26
1.25717e-24
2.03888e-23
2.64857e-22
2.87066e-21
2.67019e-20
2.17596e-19
1.57815e-18
1.03141e-17
6.13583e-17
3.35024e-16
1.69072e-15
7.93311e-15
3.47867e-14
1.43193e-13
5.55484e-13
2.03786e-12
7.09211e-12
2.34794e-11
7.4131e-11
2.23721e-10
6.4671e-10
1.79407e-09
4.78472e-09
1.22875e-08
3.04305e-08
7.2778e-08
1.68305e-07
3.76816e-07
8.17683e-07
1.72159e-06
3.52043e-06
6.99836e-06
1.35369e-05
2.54993e-05
4.68143e-05
8.38299e-05
0.000146524
0.000250153
0.000417431
0.000681274
0.00108814
0.00170188
0.00260799
0.00391791
0.00577308
0.00834819
0.011853
0.0165322
0.0226628
0.0305479
0.0405077
0.0528669
0.067939
0.0860084
0.107311
0.132017
0.160209
0.191874
0.226889
0.265021
0.305927
0.349162
0.394199
0.440446
0.48727
0.534025
0.580078
0.624834
0.667755
0.708384
0.746352
0.781385
0.813311
0.842047
0.867602
0.890055
0.909553
0.926288
0.940487
0.952399
0.962281
0.970389
0.976969
0.982251
0.986448
0.989746
0.992312
0.994288
0.995794
0.99693
0.99778
0.998408
0.998869
0.999203
0.999443
0.999614
0.999735
0.99982
0.999878
0.999918
0.999946
0.999964
0.999977
0.999985
0.99999
0.999994
0.999996
0.999998
0.999998
0.999999
0.999999
1
1
1
1
1
1
1
1
1
1
1
1
1
1
1
1
1
0.999999
0.999998
0.999996
0.999993
0.999986
0.999975
0.999953
0.999916
0.999853
0.99975
0.999583
0.999319
0.998912
0.998298
0.997392
0.996082
0.994227
0.991652
0.988147
0.983468
0.977337
0.969452
0.959492
0.947133
0.932061
0.913992
0.892689
0.867983
0.839791
0.808126
0.773111
0.734979
0.694073
0.650838
0.605801
0.559554
0.51273
0.465975
0.419922
0.375166
0.332245
0.291616
0.253648
0.218615
0.186689
0.157953
0.132398
0.109945
0.0904467
0.0737118
0.0595125
0.0476006
0.0377187
0.0296111
0.0230313
0.0177487
0.0135525
0.010254
0.00768801
0.00571218
0.00420613
0.0030696
0.00222037
0.00159198
0.00113149
0.000797239
0.000556905
0.000385706
0.000264876
0.000180372
0.000121805
8.1575e-05
5.41848e-05
3.56987e-05
2.33299e-05
1.51247e-05
9.7275e-06
6.20706e-06
3.92979e-06
2.46876e-06
1.53901e-06
9.52112e-07
5.84578e-07
3.56232e-07
2.1547e-07
1.29369e-07
7.71059e-08
4.56235e-08
2.68014e-08
1.56321e-08
9.05311e-09
5.2062e-09
2.97312e-09
1.68615e-09
9.4972e-10
5.31295e-10
2.95216e-10
1.62941e-10
8.93371e-11
4.86593e-11
2.63302e-11
1.41554e-11
7.56113e-12
4.01304e-12
2.11642e-12
1.10916e-12
5.77657e-13
2.98986e-13
1.53801e-13
7.86339e-14
3.99601e-14
2.0185e-14
1.01352e-14
5.05899e-15
2.51035e-15
1.23842e-15
6.07406e-16
2.96203e-16
1.4362e-16
6.92425e-17
3.31958e-17
1.58256e-17
7.50283e-18
3.53746e-18
1.65874e-18
7.73572e-19
3.58819e-19
1.65546e-19
7.59708e-20
3.46797e-20
1.57478e-20
7.11371e-21
3.19683e-21
1.42924e-21
6.35721e-22
2.81333e-22
1.23874e-22
5.42702e-23
2.3658e-23
1.02623e-23
4.42967e-24
1.90273e-24
8.1334e-25
3.45997e-25
1.46484e-25
6.17217e-26
2.58839e-26
1.08039e-26
4.48845e-27
1.85608e-27
7.63998e-28
3.13036e-28
1.27678e-28
5.18405e-29
2.09539e-29
8.43174e-30
3.37782e-30
1.3472e-30
5.3496e-31
2.115e-31
8.32556e-32
3.26317e-32
1.27351e-32
4.9489e-33
1.91502e-33
7.37914e-34
2.8315e-34
1.08197e-34
4.11731e-35
1.56035e-35
5.88909e-36
2.21363e-36
8.28709e-37
3.08993e-37
1.1475e-37
4.24453e-38
1.56381e-38
5.73886e-39
2.09781e-39
7.63858e-40
2.77062e-40
1.00107e-40
3.60321e-41
1.29198e-41
4.61505e-42
1.64232e-42
5.8225e-43
2.05655e-43
7.23699e-44
2.5373e-44
8.86319e-45
3.08476e-45
1.06973e-45
3.6962e-46
1.27255e-46
4.36555e-47
1.4923e-47
5.08319e-48
1.72538e-48
5.83595e-49
1.96708e-49
6.60733e-50
2.21172e-50
7.37804e-51
2.45283e-51
8.12674e-52
2.68346e-52
8.83102e-53
2.89648e-53
9.46853e-54
3.08498e-54
1.00182e-54
3.24263e-55
1.04613e-55
3.36403e-56
1.07827e-56
3.44504e-57
1.09716e-57
3.48302e-58
1.10221e-58
3.47694e-59
1.09336e-59
3.42743e-60
1.07108e-60
3.33675e-61
1.0363e-61
3.20857e-62
9.90394e-63
3.04777e-63
9.35057e-64
2.86011e-64
8.72215e-65
2.65194e-65
8.03918e-66
2.42981e-66
7.32236e-67
2.20016e-67
6.59153e-68
1.96904e-68
5.86494e-69
1.74188e-69
5.15855e-70
1.52333e-70
4.48562e-71
1.31711e-71
3.85649e-72
1.12601e-72
3.27853e-73
9.51931e-74
2.7563e-74
7.95881e-75
2.29179e-75
6.58131e-76
1.8848e-76
5.38319e-77
1.53334e-77
4.35581e-78
1.23406e-78
3.48692e-79
9.82637e-80
2.76182e-80
7.74198e-81
2.16456e-81
6.03601e-82
1.6788e-82
4.65719e-83
1.28863e-83
3.55641e-84
9.79006e-85
2.68813e-85
7.36229e-86
2.01129e-86
5.48081e-87
1.48978e-87
4.03939e-88
1.09251e-88
2.94755e-89
7.93275e-90
2.12969e-90
5.70356e-91
1.52376e-91
4.06096e-92
1.07967e-92
2.86355e-93
7.57662e-94
1.99989e-94
5.26626e-95
1.38346e-95
3.62581e-96
9.48022e-97
2.47294e-97
6.43564e-98
1.67093e-98
4.32831e-99
1.1186e-99
2.88423e-100
7.41975e-101
1.90439e-101
4.87678e-102
1.24602e-102
3.17642e-103
8.07925e-104
2.05036e-104
5.19182e-105
1.31172e-105
3.30675e-106
8.31764e-107
2.08758e-107
5.22797e-108
1.30639e-108
3.25739e-109
8.10444e-110
2.01204e-110
4.98444e-111
1.23215e-111
3.03936e-112
7.48127e-113
1.83758e-113
4.504e-114
1.10163e-114
2.68881e-115
6.54903e-116
1.5918e-116
3.86096e-117
9.34554e-118
2.25745e-118
5.44173e-119
1.30908e-119
3.14276e-120
7.52959e-121
1.80032e-121
4.29589e-122
1.02301e-122
2.43129e-123
5.76667e-124
1.36505e-124
3.22485e-125
7.60344e-126
1.78918e-126
4.2019e-127
9.84888e-128
2.30399e-128
5.37933e-129
1.25353e-129
2.91542e-130
6.76756e-131
1.56794e-131
3.62573e-132
8.36825e-133
1.92774e-133
4.43241e-134
1.01721e-134
2.33005e-135
5.32729e-136
1.21572e-136
2.76921e-137
6.29607e-138
1.42883e-138
3.2366e-139
7.31814e-140
1.65164e-140
3.72082e-141
8.36701e-142
1.87808e-142
4.20797e-143
9.41128e-144
2.10109e-144
4.68232e-145
1.04161e-145
2.31299e-146
5.1271e-147
1.1345e-147
2.50593e-148
5.5255e-149
1.21622e-149
2.67237e-150
5.86171e-151
1.28351e-151
2.80558e-152
6.12205e-153
1.3336e-153
2.90007e-154
6.29581e-155
1.36444e-155
2.95203e-156
6.37604e-157
1.37483e-157
2.95949e-158
6.36001e-159
1.36449e-159
2.92255e-160
6.2493e-161
1.33408e-161
2.84325e-162
6.04968e-163
1.2851e-163
2.72542e-164
5.77059e-165
1.21983e-165
2.57441e-166
5.4244e-167
1.14111e-167
2.39665e-168
5.02557e-169
1.05214e-169
2.19922e-170
4.58961e-171
9.56304e-172
1.98944e-172
4.13219e-173
8.5694e-174
1.77435e-174
3.6682e-175
7.57166e-176
1.56047e-176
3.21106e-177
6.59738e-178
1.3534e-178
2.77216e-179
)
;

boundaryField
{
    sides
    {
        type            zeroGradient;
    }
    empty
    {
        type            empty;
    }
}


// ************************************************************************* //
