/*--------------------------------*- C++ -*----------------------------------*\
| =========                 |                                                 |
| \\      /  F ield         | OpenFOAM: The Open Source CFD Toolbox           |
|  \\    /   O peration     | Version:  2312                                  |
|   \\  /    A nd           | Website:  www.openfoam.com                      |
|    \\/     M anipulation  |                                                 |
\*---------------------------------------------------------------------------*/
FoamFile
{
    version     2.0;
    format      ascii;
    arch        "LSB;label=32;scalar=64";
    class       volScalarField;
    location    "4.7";
    object      T;
}
// * * * * * * * * * * * * * * * * * * * * * * * * * * * * * * * * * * * * * //

dimensions      [0 0 0 1 0 0 0];

internalField   nonuniform List<scalar> 
1000
(
2.9078e-69
4.17097e-69
7.29201e-69
1.36464e-68
2.60259e-68
4.98501e-68
9.55094e-68
1.8284e-67
3.49637e-67
6.67799e-67
1.27394e-66
2.42729e-66
4.61919e-66
8.77969e-66
1.66671e-65
3.16018e-65
5.98452e-65
1.13192e-64
2.13829e-64
4.03444e-64
7.60268e-64
1.43092e-63
2.68985e-63
5.05016e-63
9.46992e-63
1.77358e-62
3.31754e-62
6.19789e-62
1.15647e-61
2.15518e-61
4.01138e-61
7.457e-61
1.3845e-60
2.56734e-60
4.75477e-60
8.79497e-60
1.62479e-59
2.99788e-59
5.52446e-59
1.01676e-58
1.86898e-58
3.4312e-58
6.2913e-58
1.15209e-57
2.10712e-57
3.84895e-57
7.02179e-57
1.2794e-56
2.32816e-56
4.23127e-56
7.68032e-56
1.39231e-55
2.52083e-55
4.55825e-55
8.23191e-55
1.48474e-54
2.67453e-54
4.8116e-54
8.64526e-54
1.55136e-53
2.78029e-53
4.97637e-53
8.89568e-53
1.58814e-52
2.83166e-52
5.04237e-52
8.96747e-52
1.59275e-51
2.82529e-51
5.00519e-51
8.85557e-51
1.56478e-50
2.76138e-50
4.86673e-50
8.56616e-50
1.50582e-49
2.64359e-49
4.63502e-49
8.11606e-49
1.4193e-48
2.47876e-48
4.32346e-48
7.53113e-48
1.31015e-47
2.27623e-47
3.9495e-47
6.84382e-47
1.18437e-46
2.04693e-46
3.53305e-46
6.09012e-46
1.04841e-45
1.80245e-45
3.09473e-45
5.30652e-45
9.08706e-45
1.55404e-44
2.65416e-44
4.52707e-44
7.71138e-44
1.31181e-43
2.2286e-43
3.78108e-43
6.40652e-43
1.08405e-42
1.8319e-42
3.09151e-42
5.21029e-42
8.76946e-42
1.47402e-41
2.4743e-41
4.14781e-41
6.9439e-41
1.16093e-40
1.93831e-40
3.23191e-40
5.38158e-40
8.94902e-40
1.48613e-39
2.46462e-39
4.08187e-39
6.7512e-39
1.1151e-38
1.83934e-38
3.02984e-38
4.98412e-38
8.18783e-38
1.34326e-37
2.20069e-37
3.60054e-37
5.88281e-37
9.59865e-37
1.56402e-36
2.54498e-36
4.13553e-36
6.71096e-36
1.08754e-35
1.75998e-35
2.84431e-35
4.59039e-35
7.3982e-35
1.19071e-34
1.91376e-34
3.07166e-34
4.92333e-34
7.88037e-34
1.25961e-33
2.01059e-33
3.20488e-33
5.10152e-33
8.10936e-33
1.28727e-32
2.04058e-32
3.23023e-32
5.10634e-32
8.06089e-32
1.27073e-31
2.0004e-31
3.14468e-31
4.93662e-31
7.73886e-31
1.21149e-30
1.89388e-30
2.95651e-30
4.60891e-30
7.17478e-30
1.11535e-29
1.73142e-29
2.68401e-29
4.15486e-29
6.4227e-29
9.91442e-29
1.52829e-28
2.35251e-28
3.61614e-28
5.55067e-28
8.5081e-28
1.30228e-27
1.99051e-27
3.03814e-27
4.63058e-27
7.0477e-27
1.07113e-26
1.62563e-26
2.46368e-26
3.72846e-26
5.6345e-26
8.50282e-26
1.2813e-25
1.92806e-25
2.89714e-25
4.34709e-25
6.51339e-25
9.74528e-25
1.45599e-24
2.17222e-24
3.23611e-24
4.81417e-24
7.15148e-24
1.06083e-23
1.57135e-23
2.3242e-23
3.43282e-23
5.06292e-23
7.45635e-23
1.09654e-22
1.61026e-22
2.36124e-22
3.45746e-22
5.05529e-22
7.38085e-22
1.07606e-21
1.56653e-21
2.27726e-21
3.30563e-21
4.79144e-21
6.935e-21
1.0023e-20
1.44648e-20
2.08448e-20
2.99952e-20
4.30994e-20
6.18383e-20
8.85953e-20
1.26745e-19
1.81056e-19
2.58263e-19
3.67855e-19
5.23185e-19
7.43014e-19
1.05367e-18
1.49201e-18
2.10962e-18
2.9785e-18
4.19908e-18
5.91116e-18
8.30906e-18
1.16625e-17
1.63453e-17
2.28746e-17
3.19651e-17
4.46022e-17
6.21436e-17
8.64559e-17
1.20102e-16
1.66597e-16
2.30749e-16
3.19133e-16
4.40716e-16
6.0772e-16
8.36767e-16
1.15043e-15
1.57934e-15
2.16493e-15
2.96324e-15
4.04991e-15
5.52685e-15
7.53121e-15
1.02472e-14
1.3922e-14
1.88864e-14
2.55829e-14
3.46021e-14
4.67314e-14
6.30183e-14
8.48548e-14
1.14087e-13
1.53162e-13
2.05312e-13
2.74807e-13
3.67276e-13
4.90125e-13
6.53087e-13
8.6893e-13
1.15438e-12
1.5313e-12
2.02825e-12
2.68245e-12
3.54234e-12
4.67085e-12
6.14964e-12
8.08447e-12
1.06121e-11
1.3909e-11
1.82028e-11
2.37864e-11
3.10359e-11
4.04341e-11
5.25988e-11
6.83203e-11
8.86074e-11
1.14745e-10
1.4837e-10
1.91558e-10
2.46946e-10
3.17868e-10
4.08542e-10
5.24289e-10
6.71814e-10
8.59551e-10
1.09809e-09
1.40071e-09
1.78403e-09
2.26881e-09
2.88097e-09
3.65277e-09
4.62434e-09
5.84546e-09
7.37788e-09
9.29794e-09
1.17e-08
1.47003e-08
1.8442e-08
2.31011e-08
2.88935e-08
3.60836e-08
4.49948e-08
5.60217e-08
6.96454e-08
8.64511e-08
1.0715e-07
1.32603e-07
1.63854e-07
2.02163e-07
2.49052e-07
3.06352e-07
3.76263e-07
4.61429e-07
5.65016e-07
6.90809e-07
8.4333e-07
1.02797e-06
1.25113e-06
1.52044e-06
1.84492e-06
2.23526e-06
2.70408e-06
3.2663e-06
3.93943e-06
4.74411e-06
5.70451e-06
6.84896e-06
8.2106e-06
9.82807e-06
1.17464e-05
1.4018e-05
1.67036e-05
1.98737e-05
2.36097e-05
2.80058e-05
3.31704e-05
3.92282e-05
4.63224e-05
5.46171e-05
6.43003e-05
7.55863e-05
8.87197e-05
0.000103979
0.000121679
0.000142178
0.000165882
0.000193248
0.000224791
0.000261091
0.000302799
0.000350644
0.000405443
0.000468106
0.000539648
0.000621196
0.000714003
0.000819454
0.000939081
0.00107457
0.00122779
0.00140078
0.00159577
0.00181521
0.00206178
0.0023384
0.00264821
0.00299466
0.00338146
0.00381261
0.00429243
0.00482557
0.005417
0.00607205
0.00679639
0.00759608
0.00847755
0.00944758
0.0105134
0.0116825
0.012963
0.0143631
0.0158917
0.0175577
0.0193707
0.0213404
0.023477
0.0257908
0.0282927
0.0309934
0.0339042
0.0370363
0.0404012
0.0440104
0.0478753
0.0520074
0.0564182
0.0611188
0.0661203
0.0714333
0.0770681
0.0830347
0.0893425
0.0960002
0.103016
0.110397
0.11815
0.126281
0.134793
0.143692
0.152979
0.162656
0.172723
0.183178
0.19402
0.205244
0.216845
0.228817
0.241151
0.253838
0.266867
0.280226
0.293901
0.307876
0.322136
0.336663
0.351438
0.366441
0.381651
0.397045
0.412602
0.428297
0.444105
0.460003
0.475964
0.491964
0.507975
0.523973
0.539931
0.555823
0.571625
0.587311
0.602856
0.618237
0.63343
0.648414
0.663166
0.677666
0.691896
0.705836
0.719469
0.732781
0.745755
0.75838
0.770643
0.782533
0.794042
0.80516
0.815882
0.826202
0.836116
0.84562
0.854712
0.863391
0.871657
0.879511
0.886955
0.893989
0.900618
0.906845
0.912673
0.918106
0.92315
0.927808
0.932085
0.935986
0.939515
0.942677
0.945476
0.947916
0.950001
0.951733
0.953115
0.95415
0.954839
0.955183
0.955183
0.954839
0.95415
0.953115
0.951733
0.950001
0.947916
0.945476
0.942677
0.939515
0.935986
0.932085
0.927808
0.92315
0.918106
0.912673
0.906845
0.900618
0.893989
0.886955
0.879511
0.871657
0.863391
0.854712
0.84562
0.836116
0.826202
0.815882
0.80516
0.794042
0.782533
0.770643
0.75838
0.745755
0.732781
0.719469
0.705836
0.691896
0.677666
0.663166
0.648414
0.63343
0.618237
0.602856
0.587311
0.571625
0.555823
0.539931
0.523973
0.507975
0.491964
0.475964
0.460003
0.444105
0.428297
0.412602
0.397045
0.381651
0.366441
0.351438
0.336663
0.322136
0.307876
0.293901
0.280226
0.266867
0.253838
0.241151
0.228817
0.216845
0.205244
0.19402
0.183178
0.172723
0.162656
0.152979
0.143692
0.134793
0.126281
0.11815
0.110397
0.103016
0.0960002
0.0893425
0.0830347
0.0770681
0.0714333
0.0661203
0.0611188
0.0564182
0.0520074
0.0478753
0.0440104
0.0404012
0.0370363
0.0339042
0.0309934
0.0282927
0.0257908
0.023477
0.0213404
0.0193707
0.0175577
0.0158917
0.0143631
0.012963
0.0116825
0.0105134
0.00944758
0.00847755
0.00759608
0.00679639
0.00607205
0.005417
0.00482557
0.00429243
0.00381261
0.00338146
0.00299466
0.00264821
0.0023384
0.00206178
0.00181521
0.00159577
0.00140078
0.00122779
0.00107457
0.000939081
0.000819454
0.000714003
0.000621196
0.000539648
0.000468106
0.000405443
0.000350644
0.000302799
0.000261091
0.000224791
0.000193248
0.000165882
0.000142178
0.000121679
0.000103979
8.87197e-05
7.55863e-05
6.43003e-05
5.46171e-05
4.63224e-05
3.92282e-05
3.31704e-05
2.80058e-05
2.36097e-05
1.98737e-05
1.67036e-05
1.4018e-05
1.17464e-05
9.82807e-06
8.2106e-06
6.84896e-06
5.70451e-06
4.74411e-06
3.93943e-06
3.2663e-06
2.70408e-06
2.23526e-06
1.84492e-06
1.52044e-06
1.25113e-06
1.02797e-06
8.4333e-07
6.90809e-07
5.65016e-07
4.61429e-07
3.76263e-07
3.06352e-07
2.49052e-07
2.02163e-07
1.63854e-07
1.32603e-07
1.0715e-07
8.64511e-08
6.96454e-08
5.60217e-08
4.49948e-08
3.60836e-08
2.88935e-08
2.31011e-08
1.8442e-08
1.47003e-08
1.17e-08
9.29794e-09
7.37788e-09
5.84546e-09
4.62434e-09
3.65277e-09
2.88097e-09
2.26881e-09
1.78403e-09
1.40071e-09
1.09809e-09
8.59551e-10
6.71814e-10
5.24289e-10
4.08542e-10
3.17868e-10
2.46946e-10
1.91558e-10
1.4837e-10
1.14745e-10
8.86074e-11
6.83203e-11
5.25988e-11
4.04341e-11
3.10359e-11
2.37864e-11
1.82028e-11
1.3909e-11
1.06121e-11
8.08447e-12
6.14964e-12
4.67085e-12
3.54234e-12
2.68245e-12
2.02825e-12
1.5313e-12
1.15438e-12
8.6893e-13
6.53087e-13
4.90125e-13
3.67276e-13
2.74807e-13
2.05312e-13
1.53162e-13
1.14087e-13
8.48548e-14
6.30183e-14
4.67314e-14
3.46021e-14
2.55829e-14
1.88864e-14
1.3922e-14
1.02472e-14
7.53121e-15
5.52685e-15
4.04991e-15
2.96324e-15
2.16493e-15
1.57934e-15
1.15043e-15
8.36767e-16
6.0772e-16
4.40716e-16
3.19133e-16
2.30749e-16
1.66597e-16
1.20102e-16
8.64559e-17
6.21436e-17
4.46022e-17
3.19651e-17
2.28746e-17
1.63453e-17
1.16625e-17
8.30906e-18
5.91116e-18
4.19908e-18
2.9785e-18
2.10962e-18
1.49201e-18
1.05367e-18
7.43014e-19
5.23185e-19
3.67855e-19
2.58263e-19
1.81056e-19
1.26745e-19
8.85953e-20
6.18383e-20
4.30994e-20
2.99952e-20
2.08448e-20
1.44648e-20
1.0023e-20
6.935e-21
4.79144e-21
3.30563e-21
2.27726e-21
1.56653e-21
1.07606e-21
7.38085e-22
5.05529e-22
3.45746e-22
2.36124e-22
1.61026e-22
1.09654e-22
7.45635e-23
5.06292e-23
3.43282e-23
2.3242e-23
1.57135e-23
1.06083e-23
7.15148e-24
4.81417e-24
3.23611e-24
2.17222e-24
1.45599e-24
9.74528e-25
6.51339e-25
4.34709e-25
2.89714e-25
1.92806e-25
1.2813e-25
8.50282e-26
5.6345e-26
3.72846e-26
2.46368e-26
1.62563e-26
1.07113e-26
7.0477e-27
4.63058e-27
3.03814e-27
1.99051e-27
1.30228e-27
8.5081e-28
5.55067e-28
3.61614e-28
2.35251e-28
1.52829e-28
9.91442e-29
6.4227e-29
4.15486e-29
2.68401e-29
1.73142e-29
1.11535e-29
7.17478e-30
4.60891e-30
2.95651e-30
1.89388e-30
1.21149e-30
7.73886e-31
4.93662e-31
3.14468e-31
2.0004e-31
1.27073e-31
8.06089e-32
5.10634e-32
3.23023e-32
2.04058e-32
1.28727e-32
8.10936e-33
5.10152e-33
3.20488e-33
2.01059e-33
1.25961e-33
7.88037e-34
4.92333e-34
3.07166e-34
1.91376e-34
1.19071e-34
7.3982e-35
4.59039e-35
2.84431e-35
1.75998e-35
1.08754e-35
6.71096e-36
4.13553e-36
2.54498e-36
1.56402e-36
9.59865e-37
5.88281e-37
3.60054e-37
2.20069e-37
1.34326e-37
8.18783e-38
4.98412e-38
3.02984e-38
1.83934e-38
1.1151e-38
6.7512e-39
4.08187e-39
2.46462e-39
1.48613e-39
8.94902e-40
5.38158e-40
3.23191e-40
1.93831e-40
1.16093e-40
6.9439e-41
4.14781e-41
2.4743e-41
1.47402e-41
8.76946e-42
5.21029e-42
3.09151e-42
1.8319e-42
1.08405e-42
6.40652e-43
3.78108e-43
2.2286e-43
1.31181e-43
7.71138e-44
4.52707e-44
2.65416e-44
1.55404e-44
9.08706e-45
5.30652e-45
3.09473e-45
1.80245e-45
1.04841e-45
6.09012e-46
3.53305e-46
2.04693e-46
1.18437e-46
6.84382e-47
3.9495e-47
2.27623e-47
1.31015e-47
7.53113e-48
4.32346e-48
2.47876e-48
1.4193e-48
8.11606e-49
4.63502e-49
2.64359e-49
1.50582e-49
8.56616e-50
4.86673e-50
2.76138e-50
1.56478e-50
8.85557e-51
5.00519e-51
2.82529e-51
1.59275e-51
8.96747e-52
5.04237e-52
2.83166e-52
1.58814e-52
8.89568e-53
4.97637e-53
2.78029e-53
1.55136e-53
8.64526e-54
4.8116e-54
2.67453e-54
1.48474e-54
8.23191e-55
4.55825e-55
2.52083e-55
1.39231e-55
7.68032e-56
4.23127e-56
2.32816e-56
1.2794e-56
7.02179e-57
3.84895e-57
2.10712e-57
1.15209e-57
6.2913e-58
3.4312e-58
1.86898e-58
1.01676e-58
5.52446e-59
2.99788e-59
1.62479e-59
8.79497e-60
4.75477e-60
2.56734e-60
1.3845e-60
7.457e-61
4.01138e-61
2.15518e-61
1.15647e-61
6.19789e-62
3.31754e-62
1.77358e-62
9.46992e-63
5.05016e-63
2.68985e-63
1.43092e-63
7.60268e-64
4.03444e-64
2.13829e-64
1.13192e-64
5.98452e-65
3.16018e-65
1.66671e-65
8.77969e-66
4.61919e-66
2.42729e-66
1.27394e-66
6.67799e-67
3.49637e-67
1.8284e-67
9.55094e-68
4.98501e-68
2.60259e-68
1.36464e-68
7.29201e-69
4.17097e-69
2.9078e-69
)
;

boundaryField
{
    sides
    {
        type            zeroGradient;
    }
    empty
    {
        type            empty;
    }
}


// ************************************************************************* //
