/*--------------------------------*- C++ -*----------------------------------*\
| =========                 |                                                 |
| \\      /  F ield         | OpenFOAM: The Open Source CFD Toolbox           |
|  \\    /   O peration     | Version:  2312                                  |
|   \\  /    A nd           | Website:  www.openfoam.com                      |
|    \\/     M anipulation  |                                                 |
\*---------------------------------------------------------------------------*/
FoamFile
{
    version     2.0;
    format      ascii;
    arch        "LSB;label=32;scalar=64";
    class       volScalarField;
    location    "4.8";
    object      T;
}
// * * * * * * * * * * * * * * * * * * * * * * * * * * * * * * * * * * * * * //

dimensions      [0 0 0 1 0 0 0];

internalField   nonuniform List<scalar> 
1000
(
5.50869e-68
7.81639e-68
1.34817e-67
2.49118e-67
4.69482e-67
8.88921e-67
1.6838e-66
3.18707e-66
6.02591e-66
1.13801e-65
2.1466e-65
4.04421e-65
7.61014e-65
1.4303e-64
2.68495e-64
5.03409e-64
9.42713e-64
1.76324e-63
3.29395e-63
6.14603e-63
1.14537e-62
2.13189e-62
3.96331e-62
7.35904e-62
1.36475e-61
2.52788e-61
4.67659e-61
8.64111e-61
1.5947e-60
2.93937e-60
5.41124e-60
9.94963e-60
1.82719e-59
3.35138e-59
6.13946e-59
1.12331e-58
2.05275e-58
3.74658e-58
6.82962e-58
1.24343e-57
2.26103e-57
4.10634e-57
7.44842e-57
1.34938e-56
2.44153e-56
4.41217e-56
7.96343e-56
1.43551e-55
2.58447e-55
4.64722e-55
8.34589e-55
1.49695e-54
2.68164e-54
4.79786e-54
8.57333e-54
1.53005e-53
2.7272e-53
4.85492e-53
8.63176e-53
1.53274e-52
2.71826e-52
4.81465e-52
8.51705e-52
1.50475e-51
2.65515e-51
4.67912e-51
8.23545e-51
1.44764e-50
2.54144e-50
4.45602e-50
7.80301e-50
1.36466e-49
2.38358e-49
4.15799e-49
7.24404e-49
1.26044e-48
2.19033e-48
3.80136e-48
6.58889e-48
1.14058e-47
1.9719e-47
3.40474e-47
5.87116e-47
1.01112e-46
1.7391e-46
2.98734e-46
5.12489e-46
8.78056e-46
1.50244e-45
2.56751e-45
4.3819e-45
7.46877e-45
1.27137e-44
2.16138e-44
3.66965e-44
6.22234e-44
1.0537e-43
1.78202e-43
3.00983e-43
5.07696e-43
8.5526e-43
1.43888e-42
2.41758e-42
4.05666e-42
6.79808e-42
1.13772e-41
1.90156e-41
3.17407e-41
5.29115e-41
8.8087e-41
1.46454e-40
2.43174e-40
4.03235e-40
6.67768e-40
1.10438e-39
1.82405e-39
3.0087e-39
4.95616e-39
8.15332e-39
1.33951e-38
2.19777e-38
3.60113e-38
5.89273e-38
9.62976e-38
1.57158e-37
2.56139e-37
4.16902e-37
6.77661e-37
1.10004e-36
1.7833e-36
2.88707e-36
4.66774e-36
7.53656e-36
1.21522e-35
1.95683e-35
3.14679e-35
5.05355e-35
8.10474e-35
1.29806e-34
2.07618e-34
3.31626e-34
5.28985e-34
8.42657e-34
1.34051e-33
2.12961e-33
3.37863e-33
5.35292e-33
8.46936e-33
1.3382e-32
2.11153e-32
3.32724e-32
5.23574e-32
8.22773e-32
1.29118e-31
2.0235e-31
3.16682e-31
4.94937e-31
7.72468e-31
1.20397e-30
1.87394e-30
2.91273e-30
4.52113e-30
7.00804e-30
1.0848e-29
1.67688e-29
2.58855e-29
3.99037e-29
6.14285e-29
9.44337e-29
1.44972e-28
2.22249e-28
3.40246e-28
5.20171e-28
7.94139e-28
1.21072e-27
1.84327e-27
2.80241e-27
4.2547e-27
6.45063e-27
9.76632e-27
1.47657e-26
2.22932e-26
3.36112e-26
5.06045e-26
7.6083e-26
1.1423e-25
1.71262e-25
2.56411e-25
3.83358e-25
5.7235e-25
8.53316e-25
1.27042e-24
1.88876e-24
2.8041e-24
4.15719e-24
6.15452e-24
9.09865e-24
1.34322e-23
1.98018e-23
2.91507e-23
4.28529e-23
6.29068e-23
9.22147e-23
1.34986e-22
1.97315e-22
2.88017e-22
4.19816e-22
6.1106e-22
8.88161e-22
1.28909e-21
1.86834e-21
2.70403e-21
3.90794e-21
5.63983e-21
8.12766e-21
1.16962e-20
1.68076e-20
2.41182e-20
3.45592e-20
4.94494e-20
7.06542e-20
1.00807e-19
1.43624e-19
2.04332e-19
2.90284e-19
4.11801e-19
5.83348e-19
8.25172e-19
1.16557e-18
1.64401e-18
2.31552e-18
3.2566e-18
4.57358e-18
6.4139e-18
8.98176e-18
1.25595e-17
1.75372e-17
2.44522e-17
3.40445e-17
4.73314e-17
6.57087e-17
9.10893e-17
1.26091e-16
1.74289e-16
2.40561e-16
3.31553e-16
4.56298e-16
6.27067e-16
8.60494e-16
1.1791e-15
1.61333e-15
2.20425e-15
3.00724e-15
4.09678e-15
5.57294e-15
7.56995e-15
1.02676e-14
1.39062e-14
1.88068e-14
2.53974e-14
3.42474e-14
4.61137e-14
6.2001e-14
8.32398e-14
1.11591e-13
1.49379e-13
1.9967e-13
2.66503e-13
3.55184e-13
4.7268e-13
6.28123e-13
8.33459e-13
1.1043e-12
1.461e-12
1.93008e-12
2.54602e-12
3.35359e-12
4.41082e-12
5.79281e-12
7.59662e-12
9.94744e-12
1.30066e-11
1.69814e-11
2.21383e-11
2.88187e-11
3.74597e-11
4.86198e-11
6.30116e-11
8.15431e-11
1.05369e-10
1.35955e-10
1.75161e-10
2.25339e-10
2.89464e-10
3.71287e-10
4.75534e-10
6.08152e-10
7.76604e-10
9.90248e-10
1.2608e-09
1.60289e-09
2.03478e-09
2.57923e-09
3.26451e-09
4.12574e-09
5.20646e-09
6.56053e-09
8.25452e-09
1.03705e-08
1.30096e-08
1.62961e-08
2.03826e-08
2.54561e-08
3.17452e-08
3.95295e-08
4.91495e-08
6.102e-08
7.56451e-08
9.36363e-08
1.15735e-07
1.42836e-07
1.76022e-07
2.16597e-07
2.66129e-07
3.26503e-07
3.9998e-07
4.89265e-07
5.97593e-07
7.28823e-07
8.87552e-07
1.07925e-06
1.3104e-06
1.5887e-06
1.92325e-06
2.32481e-06
2.80603e-06
3.38185e-06
4.06979e-06
4.89041e-06
5.8678e-06
7.03011e-06
8.41019e-06
1.00463e-05
1.19829e-05
1.42717e-05
1.69726e-05
2.01547e-05
2.38981e-05
2.82949e-05
3.34512e-05
3.94887e-05
4.65471e-05
5.47863e-05
6.43889e-05
7.55629e-05
8.85456e-05
0.000103606
0.00012105
0.000141222
0.000164515
0.000191367
0.000222276
0.000257799
0.00029856
0.00034526
0.000398679
0.000459691
0.000529266
0.000608481
0.000698531
0.000800739
0.000916566
0.00104762
0.00119567
0.00136267
0.00155074
0.00176221
0.00199961
0.00226572
0.00256354
0.00289632
0.0032676
0.00368116
0.00414111
0.00465186
0.00521811
0.00584492
0.00653769
0.00730214
0.00814438
0.00907087
0.0100884
0.0112043
0.012426
0.0137614
0.015219
0.0168073
0.0185354
0.0204127
0.0224487
0.0246535
0.0270373
0.0296105
0.0323839
0.0353683
0.0385748
0.0420145
0.0456984
0.0496378
0.0538437
0.0583271
0.0630989
0.0681694
0.073549
0.0792476
0.0852744
0.0916385
0.0983481
0.105411
0.112833
0.120622
0.128782
0.137317
0.146231
0.155526
0.165203
0.175261
0.185699
0.196515
0.207704
0.219261
0.231179
0.243451
0.256066
0.269014
0.282283
0.295859
0.309727
0.323872
0.338276
0.352921
0.367786
0.382853
0.398098
0.4135
0.429037
0.444684
0.460416
0.476211
0.492042
0.507885
0.523714
0.539505
0.555232
0.570871
0.586397
0.601786
0.617016
0.632064
0.646908
0.661527
0.675901
0.690011
0.703839
0.717369
0.730585
0.743473
0.756019
0.768211
0.78004
0.791495
0.802568
0.813253
0.823543
0.833434
0.842923
0.852006
0.860683
0.868952
0.876814
0.88427
0.891322
0.897971
0.90422
0.910074
0.915534
0.920606
0.925293
0.929599
0.933528
0.937085
0.940274
0.943097
0.94556
0.947664
0.949413
0.950809
0.951854
0.95255
0.952898
0.952898
0.95255
0.951854
0.950809
0.949413
0.947664
0.94556
0.943097
0.940274
0.937085
0.933528
0.929599
0.925293
0.920606
0.915534
0.910074
0.90422
0.897971
0.891322
0.88427
0.876814
0.868952
0.860683
0.852006
0.842923
0.833434
0.823543
0.813253
0.802568
0.791495
0.78004
0.768211
0.756019
0.743473
0.730585
0.717369
0.703839
0.690011
0.675901
0.661527
0.646908
0.632064
0.617016
0.601786
0.586397
0.570871
0.555232
0.539505
0.523714
0.507885
0.492042
0.476211
0.460416
0.444684
0.429037
0.4135
0.398098
0.382853
0.367786
0.352921
0.338276
0.323872
0.309727
0.295859
0.282283
0.269014
0.256066
0.243451
0.231179
0.219261
0.207704
0.196515
0.185699
0.175261
0.165203
0.155526
0.146231
0.137317
0.128782
0.120622
0.112833
0.105411
0.0983481
0.0916385
0.0852744
0.0792476
0.073549
0.0681694
0.0630989
0.0583271
0.0538437
0.0496378
0.0456984
0.0420145
0.0385748
0.0353683
0.0323839
0.0296105
0.0270373
0.0246535
0.0224487
0.0204127
0.0185354
0.0168073
0.015219
0.0137614
0.012426
0.0112043
0.0100884
0.00907087
0.00814438
0.00730214
0.00653769
0.00584492
0.00521811
0.00465186
0.00414111
0.00368116
0.0032676
0.00289632
0.00256354
0.00226572
0.00199961
0.00176221
0.00155074
0.00136267
0.00119567
0.00104762
0.000916566
0.000800739
0.000698531
0.000608481
0.000529266
0.000459691
0.000398679
0.00034526
0.00029856
0.000257799
0.000222276
0.000191367
0.000164515
0.000141222
0.00012105
0.000103606
8.85456e-05
7.55629e-05
6.43889e-05
5.47863e-05
4.65471e-05
3.94887e-05
3.34512e-05
2.82949e-05
2.38981e-05
2.01547e-05
1.69726e-05
1.42717e-05
1.19829e-05
1.00463e-05
8.41019e-06
7.03011e-06
5.8678e-06
4.89041e-06
4.06979e-06
3.38185e-06
2.80603e-06
2.32481e-06
1.92325e-06
1.5887e-06
1.3104e-06
1.07925e-06
8.87552e-07
7.28823e-07
5.97593e-07
4.89265e-07
3.9998e-07
3.26503e-07
2.66129e-07
2.16597e-07
1.76022e-07
1.42836e-07
1.15735e-07
9.36363e-08
7.56451e-08
6.102e-08
4.91495e-08
3.95295e-08
3.17452e-08
2.54561e-08
2.03826e-08
1.62961e-08
1.30096e-08
1.03705e-08
8.25452e-09
6.56053e-09
5.20646e-09
4.12574e-09
3.26451e-09
2.57923e-09
2.03478e-09
1.60289e-09
1.2608e-09
9.90248e-10
7.76604e-10
6.08152e-10
4.75534e-10
3.71287e-10
2.89464e-10
2.25339e-10
1.75161e-10
1.35955e-10
1.05369e-10
8.15431e-11
6.30116e-11
4.86198e-11
3.74597e-11
2.88187e-11
2.21383e-11
1.69814e-11
1.30066e-11
9.94744e-12
7.59662e-12
5.79281e-12
4.41082e-12
3.35359e-12
2.54602e-12
1.93008e-12
1.461e-12
1.1043e-12
8.33459e-13
6.28123e-13
4.7268e-13
3.55184e-13
2.66503e-13
1.9967e-13
1.49379e-13
1.11591e-13
8.32398e-14
6.2001e-14
4.61137e-14
3.42474e-14
2.53974e-14
1.88068e-14
1.39062e-14
1.02676e-14
7.56995e-15
5.57294e-15
4.09678e-15
3.00724e-15
2.20425e-15
1.61333e-15
1.1791e-15
8.60494e-16
6.27067e-16
4.56298e-16
3.31553e-16
2.40561e-16
1.74289e-16
1.26091e-16
9.10893e-17
6.57087e-17
4.73314e-17
3.40445e-17
2.44522e-17
1.75372e-17
1.25595e-17
8.98176e-18
6.4139e-18
4.57358e-18
3.2566e-18
2.31552e-18
1.64401e-18
1.16557e-18
8.25172e-19
5.83348e-19
4.11801e-19
2.90284e-19
2.04332e-19
1.43624e-19
1.00807e-19
7.06542e-20
4.94494e-20
3.45592e-20
2.41182e-20
1.68076e-20
1.16962e-20
8.12766e-21
5.63983e-21
3.90794e-21
2.70403e-21
1.86834e-21
1.28909e-21
8.88161e-22
6.1106e-22
4.19816e-22
2.88017e-22
1.97315e-22
1.34986e-22
9.22147e-23
6.29068e-23
4.28529e-23
2.91507e-23
1.98018e-23
1.34322e-23
9.09865e-24
6.15452e-24
4.15719e-24
2.8041e-24
1.88876e-24
1.27042e-24
8.53316e-25
5.7235e-25
3.83358e-25
2.56411e-25
1.71262e-25
1.1423e-25
7.6083e-26
5.06045e-26
3.36112e-26
2.22932e-26
1.47657e-26
9.76632e-27
6.45063e-27
4.2547e-27
2.80241e-27
1.84327e-27
1.21072e-27
7.94139e-28
5.20171e-28
3.40246e-28
2.22249e-28
1.44972e-28
9.44337e-29
6.14285e-29
3.99037e-29
2.58855e-29
1.67688e-29
1.0848e-29
7.00804e-30
4.52113e-30
2.91273e-30
1.87394e-30
1.20397e-30
7.72468e-31
4.94937e-31
3.16682e-31
2.0235e-31
1.29118e-31
8.22773e-32
5.23574e-32
3.32724e-32
2.11153e-32
1.3382e-32
8.46936e-33
5.35292e-33
3.37863e-33
2.12961e-33
1.34051e-33
8.42657e-34
5.28985e-34
3.31626e-34
2.07618e-34
1.29806e-34
8.10474e-35
5.05355e-35
3.14679e-35
1.95683e-35
1.21522e-35
7.53656e-36
4.66774e-36
2.88707e-36
1.7833e-36
1.10004e-36
6.77661e-37
4.16902e-37
2.56139e-37
1.57158e-37
9.62976e-38
5.89273e-38
3.60113e-38
2.19777e-38
1.33951e-38
8.15332e-39
4.95616e-39
3.0087e-39
1.82405e-39
1.10438e-39
6.67768e-40
4.03235e-40
2.43174e-40
1.46454e-40
8.8087e-41
5.29115e-41
3.17407e-41
1.90156e-41
1.13772e-41
6.79808e-42
4.05666e-42
2.41758e-42
1.43888e-42
8.5526e-43
5.07696e-43
3.00983e-43
1.78202e-43
1.0537e-43
6.22234e-44
3.66965e-44
2.16138e-44
1.27137e-44
7.46877e-45
4.3819e-45
2.56751e-45
1.50244e-45
8.78056e-46
5.12489e-46
2.98734e-46
1.7391e-46
1.01112e-46
5.87116e-47
3.40474e-47
1.9719e-47
1.14058e-47
6.58889e-48
3.80136e-48
2.19033e-48
1.26044e-48
7.24404e-49
4.15799e-49
2.38358e-49
1.36466e-49
7.80301e-50
4.45602e-50
2.54144e-50
1.44764e-50
8.23545e-51
4.67912e-51
2.65515e-51
1.50475e-51
8.51705e-52
4.81465e-52
2.71826e-52
1.53274e-52
8.63176e-53
4.85492e-53
2.7272e-53
1.53005e-53
8.57333e-54
4.79786e-54
2.68164e-54
1.49695e-54
8.34589e-55
4.64722e-55
2.58447e-55
1.43551e-55
7.96343e-56
4.41217e-56
2.44153e-56
1.34938e-56
7.44842e-57
4.10634e-57
2.26103e-57
1.24343e-57
6.82962e-58
3.74658e-58
2.05275e-58
1.12331e-58
6.13946e-59
3.35138e-59
1.82719e-59
9.94963e-60
5.41124e-60
2.93937e-60
1.5947e-60
8.64111e-61
4.67659e-61
2.52788e-61
1.36475e-61
7.35904e-62
3.96331e-62
2.13189e-62
1.14537e-62
6.14603e-63
3.29395e-63
1.76324e-63
9.42713e-64
5.03409e-64
2.68495e-64
1.4303e-64
7.61014e-65
4.04421e-65
2.1466e-65
1.13801e-65
6.02591e-66
3.18707e-66
1.6838e-66
8.88921e-67
4.69482e-67
2.49118e-67
1.34817e-67
7.81639e-68
5.50869e-68
)
;

boundaryField
{
    sides
    {
        type            zeroGradient;
    }
    empty
    {
        type            empty;
    }
}


// ************************************************************************* //
