/*--------------------------------*- C++ -*----------------------------------*\
| =========                 |                                                 |
| \\      /  F ield         | OpenFOAM: The Open Source CFD Toolbox           |
|  \\    /   O peration     | Version:  2312                                  |
|   \\  /    A nd           | Website:  www.openfoam.com                      |
|    \\/     M anipulation  |                                                 |
\*---------------------------------------------------------------------------*/
FoamFile
{
    version     2.0;
    format      ascii;
    arch        "LSB;label=32;scalar=64";
    class       volScalarField;
    location    "2.3";
    object      T;
}
// * * * * * * * * * * * * * * * * * * * * * * * * * * * * * * * * * * * * * //

dimensions      [0 0 0 1 0 0 0];

internalField   nonuniform List<scalar> 
1000
(
0
0
0
0
0
0
0
0
0
0
0
0
0
0
0
0
0
0
0
0
0
0
0
0
0
0
0
0
0
0
0
0
0
0
0
0
0
0
0
0
0
0
0
0
0
0
0
0
0
0
0
0
0
0
0
0
0
0
0
0
0
0
0
0
0
0
0
0
0
0
0
0
0
0
0
0
0
0
0
0
0
0
0
0
0
0
0
0
0
0
0
0
0
0
0
0
0
0
0
0
0
0
0
0
0
0
0
0
0
0
0
0
0
0
0
0
0
0
0
0
0
0
0
0
0
0
0
0
0
0
0
0
0
0
0
0
0
0
0
0
0
0
0
0
0
0
0
0
0
0
0
0
0
0
0
0
0
0
0
0
0
0
0
0
0
0
0
0
0
0
0
0
0
-4.94066e-324
2.96439e-323
-4.94066e-324
2.96439e-323
-4.94066e-324
2.96439e-323
-4.94066e-324
2.96439e-323
-4.94066e-324
2.96439e-323
-4.94066e-324
2.96439e-323
-4.94066e-324
2.96439e-323
-4.94066e-324
2.96439e-323
-4.94066e-324
2.96439e-323
-4.94066e-324
2.96439e-323
-4.94066e-324
2.96439e-323
-4.94066e-324
2.96439e-323
-4.94066e-324
2.96439e-323
-4.94066e-324
2.96439e-323
-4.94066e-324
2.96439e-323
-4.94066e-324
2.96439e-323
-4.94066e-324
2.96439e-323
-4.94066e-324
2.96439e-323
-4.94066e-324
2.96439e-323
-4.94066e-324
2.96439e-323
-4.94066e-324
2.96439e-323
-4.94066e-324
2.96439e-323
-4.94066e-324
2.96439e-323
-4.94066e-324
2.96439e-323
-4.94066e-324
2.96439e-323
-4.94066e-324
2.96439e-323
-4.94066e-324
2.96439e-323
-4.94066e-324
2.96439e-323
-4.94066e-324
2.96439e-323
-4.94066e-324
2.96439e-323
-4.94066e-324
2.96439e-323
-4.94066e-324
2.96439e-323
-4.94066e-324
3.21143e-322
-3.913e-321
5.05528e-320
-6.48851e-319
8.36688e-318
-1.07391e-316
1.38477e-315
-1.77749e-314
2.29182e-313
-2.94202e-312
3.79311e-311
-4.86931e-310
6.27799e-309
-8.05914e-308
1.03906e-306
-1.3339e-305
1.71963e-304
-2.20797e-303
2.84564e-302
-3.65539e-301
4.70809e-300
-6.05266e-299
7.7886e-298
-1.00225e-296
1.28852e-295
-1.65946e-294
2.13194e-293
-2.74725e-292
3.52786e-291
-4.54761e-290
5.83839e-289
-7.5271e-288
9.66288e-287
-1.24581e-285
1.5993e-284
-2.06194e-283
2.64696e-282
-3.41274e-281
4.38095e-280
-5.64834e-279
7.25113e-278
-9.34793e-277
1.20026e-275
-1.54689e-274
1.98708e-273
-2.55933e-272
3.29024e-271
-4.2339e-270
5.44825e-269
-7.00441e-268
9.02082e-267
-1.15892e-265
1.49341e-264
-1.91775e-263
2.47209e-262
-3.17376e-261
4.09175e-260
-5.25275e-259
6.77227e-258
-8.69376e-257
1.12088e-255
-1.43888e-254
1.85518e-253
-2.38148e-252
3.07046e-251
-3.94168e-250
5.0817e-249
-6.52419e-248
8.41005e-247
-1.07994e-245
1.39173e-244
-1.78775e-243
2.30292e-242
-2.95956e-241
3.81076e-240
-4.8992e-239
6.3063e-238
-8.1095e-237
1.04365e-235
-1.34233e-234
1.72714e-233
-2.22199e-232
2.85817e-231
-3.67809e-230
4.73003e-229
-6.08798e-228
7.82846e-227
-1.0076e-225
1.29574e-224
-1.66758e-223
2.14468e-222
-2.75991e-221
3.54972e-220
-4.56786e-219
5.87515e-218
-7.56016e-217
9.72407e-216
-1.25126e-214
1.60944e-213
-2.07094e-212
2.66375e-211
-3.42766e-210
4.40872e-209
-5.67302e-208
7.29717e-207
-9.3886e-206
1.20789e-204
-1.5537e-203
1.99942e-202
-2.57125e-201
3.30944e-200
-4.25557e-199
5.47733e-198
-7.04367e-197
9.06501e-196
-1.16585e-194
1.50029e-193
-1.92963e-192
2.4831e-191
-3.19373e-190
4.10973e-189
-5.286e-188
6.80186e-187
-8.74896e-186
1.12577e-184
-1.44802e-183
1.86327e-182
-2.3966e-181
3.08385e-180
-3.96677e-179
5.10365e-178
-6.5661e-177
8.44593e-176
-1.08689e-174
1.39773e-173
-1.79904e-172
2.31327e-171
-2.97763e-170
3.82869e-169
-4.92818e-168
6.33697e-167
-8.15644e-166
1.04885e-164
-1.34995e-163
1.73596e-162
-2.23427e-161
2.8732e-160
-3.6979e-159
4.75542e-158
-6.12037e-157
7.87064e-156
-1.01298e-154
1.30267e-153
-1.67655e-152
2.15612e-151
-2.77465e-150
3.56896e-149
-4.59171e-148
5.90778e-147
-7.59871e-146
9.77898e-145
-1.25756e-143
1.61859e-142
-2.08134e-141
2.67892e-140
-3.44484e-139
4.4338e-138
-5.70163e-137
7.33819e-136
-9.43695e-135
1.21451e-133
-1.56195e-132
2.01006e-131
-2.58525e-130
3.32675e-129
-4.27893e-128
5.50599e-127
-7.08206e-126
9.11297e-125
-1.17213e-123
1.50832e-122
-1.88685e-123
-6.79029e-121
9.82349e-120
1.07741e-119
-4.77246e-118
1.51145e-117
1.98449e-116
-2.69647e-115
-5.79499e-115
1.63741e-113
1.17068e-113
-8.12784e-112
1.42738e-112
3.89233e-110
-3.89556e-110
-1.95998e-108
2.53776e-108
9.60743e-107
-1.02783e-106
-5.04831e-105
1.9896e-105
2.64229e-103
8.56135e-104
-1.36524e-101
-1.31783e-101
5.66438e-100
1.20338e-99
-1.60677e-98
-9.5488e-98
2.84044e-97
6.29595e-96
1.83404e-96
-2.89216e-94
-4.93548e-94
6.06557e-93
5.09852e-92
-3.31306e-92
-2.95599e-90
-4.51538e-90
4.99958e-89
4.88837e-88
3.6952e-89
-1.98297e-86
-6.484e-86
1.57376e-85
4.93848e-84
7.31679e-84
-5.69994e-83
-9.07794e-82
-8.79829e-82
1.37606e-80
1.56441e-79
1.2913e-79
-2.48137e-78
-2.97206e-77
-2.87041e-77
3.53428e-76
5.09946e-75
6.33026e-75
-4.05111e-74
-7.67925e-73
-1.66631e-72
2.85474e-72
8.56946e-71
4.53212e-70
2.16731e-70
-6.83205e-69
-8.63816e-68
-1.50382e-67
2.94669e-67
7.30842e-66
4.37472e-65
3.5184e-65
-3.71447e-64
-5.38614e-63
-5.80055e-62
-5.82491e-61
-5.64311e-60
-5.30778e-59
-4.82045e-58
-1.6172e-57
-8.39754e-58
1.47269e-56
1.69024e-55
1.50191e-54
1.24636e-53
1.00033e-52
7.83076e-52
5.99294e-51
4.48747e-50
3.28905e-49
2.36033e-48
1.65891e-47
1.14215e-46
7.70513e-46
5.0943e-45
3.30164e-44
2.098e-43
1.30737e-42
7.99078e-42
4.79135e-41
2.81891e-40
1.62754e-39
9.22321e-39
5.13097e-38
2.80253e-37
1.50313e-36
7.91771e-36
4.09655e-35
2.08214e-34
1.03974e-33
5.10177e-33
2.46005e-32
1.16585e-31
5.4308e-31
2.48685e-30
1.11956e-29
4.95552e-29
2.15685e-28
9.23157e-28
3.88589e-27
1.60878e-26
6.55134e-26
2.62432e-25
1.03416e-24
4.00931e-24
1.52928e-23
5.73937e-23
2.11945e-22
7.70169e-22
2.75405e-21
9.69162e-21
3.35643e-20
1.14401e-19
3.83768e-19
1.26707e-18
4.11759e-18
1.31704e-17
4.14646e-17
1.28494e-16
3.91944e-16
1.17679e-15
3.47783e-15
1.01171e-14
2.89691e-14
8.16479e-14
2.26505e-13
6.18485e-13
1.66222e-12
4.39687e-12
1.14468e-11
2.93288e-11
7.39536e-11
1.8351e-10
4.481e-10
1.07667e-09
2.54541e-09
5.92073e-09
1.35489e-08
3.05009e-08
6.75409e-08
1.47106e-07
3.15111e-07
6.63779e-07
1.37488e-06
2.79989e-06
5.60529e-06
1.10302e-05
2.13321e-05
4.05407e-05
7.56985e-05
0.000138852
0.000250157
0.000442577
0.000768768
0.00131083
0.00219354
0.0036016
0.00580087
0.00916278
0.01419
0.0215398
0.0320389
0.046683
0.0666121
0.0930515
0.127213
0.170154
0.222597
0.284738
0.356049
0.435142
0.519715
0.606623
0.692109
0.772167
0.843019
0.901607
0.946015
0.975755
0.992085
0.998456
0.999864
0.999996
1
1
1
1
1
1
1
1
1
1
1
1
1
1
1
1
1
1
1
1
1
1
1
1
1
1
1
1
1
1
1
1
1
1
1
1
1
1
1
1
1
1
1
1
1
1
1
1
1
1
1
1
1
1
1
1
1
1
1
0.999999
0.999999
0.999997
0.999994
0.999989
0.999979
0.999959
0.999924
0.999861
0.999749
0.999557
0.99923
0.998688
0.997804
0.996394
0.994193
0.990828
0.985797
0.978441
0.967935
0.953281
0.933341
0.906888
0.872712
0.829756
0.777296
0.715141
0.643818
0.564717
0.480141
0.393236
0.30776
0.227718
0.156886
0.0983198
0.053935
0.0242157
0.00790181
0.00153982
0.000135598
3.8975e-06
2.66586e-08
3.31669e-11
6.08585e-15
5.10835e-19
4.307e-23
3.66184e-27
3.14094e-31
2.71279e-35
2.35244e-39
2.0427e-43
1.77278e-47
1.53617e-51
1.32874e-55
1.1475e-59
9.89855e-64
8.53329e-68
7.35482e-72
6.3397e-76
5.46606e-80
4.71421e-84
4.06683e-88
3.509e-92
3.02798e-96
2.61297e-100
2.25479e-104
1.94561e-108
1.67872e-112
1.44837e-116
1.24958e-120
1.07804e-124
9.30041e-129
8.02356e-133
6.92201e-137
5.9717e-141
5.15185e-145
4.44456e-149
3.83435e-153
3.3079e-157
2.85371e-161
2.46186e-165
2.1238e-169
1.83214e-173
1.58053e-177
1.36346e-181
1.17619e-185
1.01464e-189
8.75271e-194
7.5504e-198
6.51321e-202
5.61846e-206
4.8466e-210
4.18075e-214
3.60636e-218
3.11086e-222
2.68343e-226
2.31472e-230
1.99666e-234
1.72229e-238
1.48562e-242
1.28147e-246
1.10536e-250
9.53456e-255
8.22423e-259
7.09395e-263
6.11899e-267
5.278e-271
4.55259e-275
3.92686e-279
3.38712e-283
2.92156e-287
2.51999e-291
2.1736e-295
1.87482e-299
1.6171e-303
1.39481e-307
1.20306e-311
1.03767e-315
8.94802e-320
0
0
0
0
0
0
0
0
0
0
0
0
0
0
0
0
0
0
0
0
0
0
0
0
0
0
0
0
0
0
0
0
0
0
0
0
0
0
0
0
0
0
0
0
0
0
0
0
0
0
0
0
0
0
0
0
0
0
0
0
0
0
0
0
0
0
0
0
0
0
0
0
0
0
0
0
0
0
0
0
0
0
0
0
0
0
0
0
0
0
0
0
0
0
0
0
0
0
0
0
0
0
0
0
0
0
0
0
0
0
0
0
0
0
0
0
0
0
0
0
0
0
0
0
0
0
0
0
0
0
0
0
0
0
0
0
0
0
0
0
0
0
0
0
0
0
0
0
0
0
0
0
0
0
0
0
0
0
0
0
0
0
0
0
0
0
0
0
0
0
0
0
0
0
0
0
0
0
0
0
0
0
0
0
0
0
0
0
0
0
0
0
0
0
0
0
0
0
0
)
;

boundaryField
{
    sides
    {
        type            zeroGradient;
    }
    empty
    {
        type            empty;
    }
}


// ************************************************************************* //
