/*--------------------------------*- C++ -*----------------------------------*\
| =========                 |                                                 |
| \\      /  F ield         | OpenFOAM: The Open Source CFD Toolbox           |
|  \\    /   O peration     | Version:  2312                                  |
|   \\  /    A nd           | Website:  www.openfoam.com                      |
|    \\/     M anipulation  |                                                 |
\*---------------------------------------------------------------------------*/
FoamFile
{
    version     2.0;
    format      ascii;
    arch        "LSB;label=32;scalar=64";
    class       volScalarField;
    location    "1.3";
    object      T;
}
// * * * * * * * * * * * * * * * * * * * * * * * * * * * * * * * * * * * * * //

dimensions      [0 0 0 1 0 0 0];

internalField   nonuniform List<scalar> 
1000
(
2.21031e-18
2.24625e-18
2.34607e-18
2.51245e-18
2.7499e-18
3.06483e-18
3.46571e-18
3.96331e-18
4.57098e-18
5.30496e-18
6.18479e-18
7.23384e-18
8.47987e-18
9.95572e-18
1.17001e-17
1.37587e-17
1.61852e-17
1.90423e-17
2.2404e-17
2.63566e-17
3.10015e-17
3.6457e-17
4.28615e-17
5.0377e-17
5.91924e-17
6.95287e-17
8.16434e-17
9.58374e-17
1.12461e-16
1.31924e-16
1.54702e-16
1.81351e-16
2.12517e-16
2.48953e-16
2.91534e-16
3.41281e-16
3.99377e-16
4.672e-16
5.46352e-16
6.3869e-16
7.46373e-16
8.71909e-16
1.0182e-15
1.18863e-15
1.38709e-15
1.61813e-15
1.887e-15
2.19976e-15
2.56347e-15
2.98628e-15
3.4776e-15
4.04833e-15
4.71109e-15
5.48043e-15
6.37317e-15
7.40874e-15
8.60956e-15
1.00015e-14
1.16144e-14
1.34827e-14
1.5646e-14
1.81501e-14
2.10475e-14
2.43989e-14
2.8274e-14
3.27531e-14
3.79283e-14
4.39059e-14
5.08077e-14
5.87737e-14
6.79647e-14
7.85654e-14
9.07876e-14
1.04874e-13
1.21104e-13
1.39795e-13
1.61315e-13
1.86082e-13
2.14576e-13
2.47346e-13
2.8502e-13
3.28316e-13
3.78055e-13
4.35176e-13
5.00751e-13
5.76003e-13
6.6233e-13
7.61325e-13
8.74808e-13
1.00485e-12
1.15382e-12
1.3244e-12
1.51966e-12
1.74309e-12
1.99866e-12
2.2909e-12
2.62493e-12
3.00661e-12
3.44256e-12
3.94032e-12
4.50846e-12
5.15668e-12
5.89602e-12
6.73896e-12
7.69968e-12
8.79424e-12
1.00408e-11
1.14601e-11
1.30752e-11
1.49128e-11
1.70025e-11
1.93781e-11
2.20779e-11
2.51448e-11
2.86275e-11
3.25811e-11
3.70674e-11
4.21565e-11
4.79272e-11
5.44685e-11
6.18805e-11
7.0276e-11
7.97821e-11
9.05419e-11
1.02716e-10
1.16486e-10
1.32054e-10
1.4965e-10
1.6953e-10
1.91982e-10
2.1733e-10
2.45937e-10
2.7821e-10
3.14606e-10
3.55636e-10
4.01874e-10
4.5396e-10
5.12615e-10
5.78641e-10
6.52938e-10
7.36512e-10
8.30485e-10
9.36114e-10
1.0548e-09
1.18811e-09
1.33779e-09
1.50578e-09
1.69426e-09
1.90566e-09
2.14266e-09
2.40828e-09
2.70585e-09
3.03911e-09
3.41218e-09
3.82968e-09
4.29673e-09
4.819e-09
5.40282e-09
6.0552e-09
6.78391e-09
7.5976e-09
8.50584e-09
9.51923e-09
1.06495e-08
1.19098e-08
1.33144e-08
1.48793e-08
1.66222e-08
1.85625e-08
2.07219e-08
2.31243e-08
2.57958e-08
2.87657e-08
3.2066e-08
3.57321e-08
3.9803e-08
4.43218e-08
4.93359e-08
5.48975e-08
6.10641e-08
6.78989e-08
7.54717e-08
8.38589e-08
9.31447e-08
1.03421e-07
1.14791e-07
1.27364e-07
1.41264e-07
1.56625e-07
1.73593e-07
1.9233e-07
2.13014e-07
2.35836e-07
2.6101e-07
2.88768e-07
3.19362e-07
3.53071e-07
3.90197e-07
4.31072e-07
4.76058e-07
5.25549e-07
5.79976e-07
6.3981e-07
7.05563e-07
7.77794e-07
8.5711e-07
9.44175e-07
1.03971e-06
1.1445e-06
1.2594e-06
1.38533e-06
1.52331e-06
1.67443e-06
1.83987e-06
2.02094e-06
2.21903e-06
2.43566e-06
2.67247e-06
2.93126e-06
3.21395e-06
3.52263e-06
3.85958e-06
4.22723e-06
4.62823e-06
5.06546e-06
5.54199e-06
6.06118e-06
6.62662e-06
7.24221e-06
7.91214e-06
8.64093e-06
9.43346e-06
1.0295e-05
1.12311e-05
1.2248e-05
1.33522e-05
1.45506e-05
1.5851e-05
1.72613e-05
1.87904e-05
2.04476e-05
2.2243e-05
2.41873e-05
2.62921e-05
2.85699e-05
3.10338e-05
3.36982e-05
3.65781e-05
3.96899e-05
4.30511e-05
4.66801e-05
5.05969e-05
5.48226e-05
5.93801e-05
6.42933e-05
6.95881e-05
7.52921e-05
8.14343e-05
8.80462e-05
9.51608e-05
0.000102813
0.000111042
0.000119886
0.000129388
0.000139593
0.00015055
0.000162308
0.000174922
0.000188449
0.00020295
0.000218489
0.000235133
0.000252955
0.000272031
0.000292441
0.000314271
0.000337609
0.000362552
0.000389198
0.000417655
0.000448032
0.000480448
0.000515027
0.000551897
0.000591197
0.000633071
0.000677669
0.000725152
0.000775687
0.000829449
0.000886623
0.000947403
0.00101199
0.0010806
0.00115345
0.00123077
0.00131282
0.00139984
0.0014921
0.00158988
0.00169347
0.00180317
0.00191931
0.0020422
0.0021722
0.00230965
0.00245495
0.00260846
0.0027706
0.00294178
0.00312245
0.00331305
0.00351405
0.00372593
0.00394921
0.00418441
0.00443206
0.00469273
0.00496699
0.00525545
0.00555872
0.00587744
0.00621227
0.00656389
0.006933
0.00732031
0.00772658
0.00815257
0.00859906
0.00906685
0.00955679
0.0100697
0.0106065
0.011168
0.0117552
0.012369
0.0130104
0.0136803
0.0143798
0.0151098
0.0158715
0.0166658
0.0174939
0.0183568
0.0192557
0.0201917
0.0211659
0.0221797
0.023234
0.0243301
0.0254694
0.0266528
0.0278819
0.0291576
0.0304815
0.0318546
0.0332784
0.034754
0.0362829
0.0378662
0.0395053
0.0412016
0.0429562
0.0447705
0.0466458
0.0485834
0.0505846
0.0526506
0.0547828
0.0569823
0.0592504
0.0615883
0.0639972
0.0664784
0.0690329
0.0716618
0.0743664
0.0771475
0.0800064
0.0829439
0.0859611
0.0890588
0.092238
0.0954995
0.098844
0.102272
0.105785
0.109383
0.113067
0.116837
0.120693
0.124637
0.128668
0.132787
0.136993
0.141287
0.14567
0.15014
0.154698
0.159344
0.164077
0.168896
0.173803
0.178795
0.183873
0.189035
0.194281
0.199609
0.20502
0.210511
0.216082
0.22173
0.227456
0.233257
0.239132
0.245078
0.251095
0.25718
0.263332
0.269547
0.275825
0.282163
0.288557
0.295007
0.301508
0.30806
0.314658
0.3213
0.327983
0.334704
0.341459
0.348247
0.355062
0.361903
0.368764
0.375644
0.382538
0.389443
0.396355
0.403269
0.410183
0.417093
0.423993
0.430881
0.437753
0.444603
0.451429
0.458225
0.464988
0.471714
0.478397
0.485035
0.491622
0.498155
0.504628
0.511039
0.517382
0.523653
0.529848
0.535963
0.541994
0.547936
0.553785
0.559537
0.565188
0.570734
0.576171
0.581495
0.586703
0.59179
0.596753
0.601587
0.606291
0.610859
0.615289
0.619577
0.623721
0.627716
0.631561
0.635251
0.638785
0.642159
0.645371
0.648419
0.6513
0.654011
0.656552
0.65892
0.661112
0.663128
0.664966
0.666624
0.668101
0.669396
0.670508
0.671436
0.672179
0.672737
0.673109
0.673296
0.673296
0.673109
0.672737
0.672179
0.671436
0.670508
0.669396
0.668101
0.666624
0.664966
0.663128
0.661112
0.65892
0.656552
0.654011
0.6513
0.648419
0.645371
0.642159
0.638785
0.635251
0.631561
0.627716
0.623721
0.619577
0.615289
0.610859
0.606291
0.601587
0.596753
0.59179
0.586703
0.581495
0.576171
0.570734
0.565188
0.559537
0.553785
0.547936
0.541994
0.535963
0.529848
0.523653
0.517382
0.511039
0.504628
0.498155
0.491622
0.485035
0.478397
0.471714
0.464988
0.458225
0.451429
0.444603
0.437753
0.430881
0.423993
0.417093
0.410183
0.403269
0.396355
0.389443
0.382538
0.375644
0.368764
0.361903
0.355062
0.348247
0.341459
0.334704
0.327983
0.3213
0.314658
0.30806
0.301508
0.295007
0.288557
0.282163
0.275825
0.269547
0.263332
0.25718
0.251095
0.245078
0.239132
0.233257
0.227456
0.22173
0.216082
0.210511
0.20502
0.199609
0.194281
0.189035
0.183873
0.178795
0.173803
0.168896
0.164077
0.159344
0.154698
0.15014
0.14567
0.141287
0.136993
0.132787
0.128668
0.124637
0.120693
0.116837
0.113067
0.109383
0.105785
0.102272
0.098844
0.0954995
0.092238
0.0890588
0.0859611
0.0829439
0.0800064
0.0771475
0.0743664
0.0716618
0.0690329
0.0664784
0.0639972
0.0615883
0.0592504
0.0569823
0.0547828
0.0526506
0.0505846
0.0485834
0.0466458
0.0447705
0.0429562
0.0412016
0.0395053
0.0378662
0.0362829
0.034754
0.0332784
0.0318546
0.0304815
0.0291576
0.0278819
0.0266528
0.0254694
0.0243301
0.023234
0.0221797
0.0211659
0.0201917
0.0192557
0.0183568
0.0174939
0.0166658
0.0158715
0.0151098
0.0143798
0.0136803
0.0130104
0.012369
0.0117552
0.011168
0.0106065
0.0100697
0.00955679
0.00906685
0.00859906
0.00815257
0.00772658
0.00732031
0.006933
0.00656389
0.00621227
0.00587744
0.00555872
0.00525545
0.00496699
0.00469273
0.00443206
0.00418441
0.00394921
0.00372593
0.00351405
0.00331305
0.00312245
0.00294178
0.0027706
0.00260846
0.00245495
0.00230965
0.0021722
0.0020422
0.00191931
0.00180317
0.00169347
0.00158988
0.0014921
0.00139984
0.00131282
0.00123077
0.00115345
0.0010806
0.00101199
0.000947403
0.000886623
0.000829449
0.000775687
0.000725152
0.000677669
0.000633071
0.000591197
0.000551897
0.000515027
0.000480448
0.000448032
0.000417655
0.000389198
0.000362552
0.000337609
0.000314271
0.000292441
0.000272031
0.000252955
0.000235133
0.000218489
0.00020295
0.000188449
0.000174922
0.000162308
0.00015055
0.000139593
0.000129388
0.000119886
0.000111042
0.000102813
9.51608e-05
8.80462e-05
8.14343e-05
7.52921e-05
6.95881e-05
6.42933e-05
5.93801e-05
5.48226e-05
5.05969e-05
4.66801e-05
4.30511e-05
3.96899e-05
3.65781e-05
3.36982e-05
3.10338e-05
2.85699e-05
2.62921e-05
2.41873e-05
2.2243e-05
2.04476e-05
1.87904e-05
1.72613e-05
1.5851e-05
1.45506e-05
1.33522e-05
1.2248e-05
1.12311e-05
1.0295e-05
9.43346e-06
8.64093e-06
7.91214e-06
7.24221e-06
6.62662e-06
6.06118e-06
5.54199e-06
5.06546e-06
4.62823e-06
4.22723e-06
3.85958e-06
3.52263e-06
3.21395e-06
2.93126e-06
2.67247e-06
2.43566e-06
2.21903e-06
2.02094e-06
1.83987e-06
1.67443e-06
1.52331e-06
1.38533e-06
1.2594e-06
1.1445e-06
1.03971e-06
9.44175e-07
8.5711e-07
7.77794e-07
7.05563e-07
6.3981e-07
5.79976e-07
5.25549e-07
4.76058e-07
4.31072e-07
3.90197e-07
3.53071e-07
3.19362e-07
2.88768e-07
2.6101e-07
2.35836e-07
2.13014e-07
1.9233e-07
1.73593e-07
1.56625e-07
1.41264e-07
1.27364e-07
1.14791e-07
1.03421e-07
9.31447e-08
8.38589e-08
7.54717e-08
6.78989e-08
6.10641e-08
5.48975e-08
4.93359e-08
4.43218e-08
3.9803e-08
3.57321e-08
3.2066e-08
2.87657e-08
2.57958e-08
2.31243e-08
2.07219e-08
1.85625e-08
1.66222e-08
1.48793e-08
1.33144e-08
1.19098e-08
1.06495e-08
9.51923e-09
8.50584e-09
7.5976e-09
6.78391e-09
6.0552e-09
5.40282e-09
4.819e-09
4.29673e-09
3.82968e-09
3.41218e-09
3.03911e-09
2.70585e-09
2.40828e-09
2.14266e-09
1.90566e-09
1.69426e-09
1.50578e-09
1.33779e-09
1.18811e-09
1.0548e-09
9.36114e-10
8.30485e-10
7.36512e-10
6.52938e-10
5.78641e-10
5.12615e-10
4.5396e-10
4.01874e-10
3.55636e-10
3.14606e-10
2.7821e-10
2.45937e-10
2.1733e-10
1.91982e-10
1.6953e-10
1.4965e-10
1.32054e-10
1.16486e-10
1.02716e-10
9.05419e-11
7.97821e-11
7.0276e-11
6.18805e-11
5.44685e-11
4.79272e-11
4.21565e-11
3.70674e-11
3.25811e-11
2.86275e-11
2.51448e-11
2.20779e-11
1.93781e-11
1.70025e-11
1.49128e-11
1.30752e-11
1.14601e-11
1.00408e-11
8.79424e-12
7.69968e-12
6.73896e-12
5.89602e-12
5.15668e-12
4.50846e-12
3.94032e-12
3.44256e-12
3.00661e-12
2.62493e-12
2.2909e-12
1.99866e-12
1.74309e-12
1.51966e-12
1.3244e-12
1.15382e-12
1.00485e-12
8.74808e-13
7.61325e-13
6.6233e-13
5.76003e-13
5.00751e-13
4.35176e-13
3.78055e-13
3.28316e-13
2.8502e-13
2.47346e-13
2.14576e-13
1.86082e-13
1.61315e-13
1.39795e-13
1.21104e-13
1.04874e-13
9.07876e-14
7.85654e-14
6.79647e-14
5.87737e-14
5.08077e-14
4.39059e-14
3.79283e-14
3.27531e-14
2.8274e-14
2.43989e-14
2.10475e-14
1.81501e-14
1.5646e-14
1.34827e-14
1.16144e-14
1.00015e-14
8.60956e-15
7.40874e-15
6.37317e-15
5.48043e-15
4.71109e-15
4.04833e-15
3.4776e-15
2.98628e-15
2.56347e-15
2.19976e-15
1.887e-15
1.61813e-15
1.38709e-15
1.18863e-15
1.0182e-15
8.71909e-16
7.46373e-16
6.3869e-16
5.46352e-16
4.672e-16
3.99377e-16
3.41281e-16
2.91534e-16
2.48953e-16
2.12517e-16
1.81351e-16
1.54702e-16
1.31924e-16
1.12461e-16
9.58374e-17
8.16434e-17
6.95287e-17
5.91924e-17
5.0377e-17
4.28615e-17
3.6457e-17
3.10015e-17
2.63566e-17
2.2404e-17
1.90423e-17
1.61852e-17
1.37587e-17
1.17001e-17
9.95572e-18
8.47987e-18
7.23384e-18
6.18479e-18
5.30496e-18
4.57098e-18
3.96331e-18
3.46571e-18
3.06483e-18
2.7499e-18
2.51245e-18
2.34607e-18
2.24625e-18
2.21031e-18
)
;

boundaryField
{
    sides
    {
        type            zeroGradient;
    }
    empty
    {
        type            empty;
    }
}


// ************************************************************************* //
