/*--------------------------------*- C++ -*----------------------------------*\
| =========                 |                                                 |
| \\      /  F ield         | OpenFOAM: The Open Source CFD Toolbox           |
|  \\    /   O peration     | Version:  2312                                  |
|   \\  /    A nd           | Website:  www.openfoam.com                      |
|    \\/     M anipulation  |                                                 |
\*---------------------------------------------------------------------------*/
FoamFile
{
    version     2.0;
    format      ascii;
    arch        "LSB;label=32;scalar=64";
    class       volScalarField;
    location    "3.6";
    object      T;
}
// * * * * * * * * * * * * * * * * * * * * * * * * * * * * * * * * * * * * * //

dimensions      [0 0 0 1 0 0 0];

internalField   nonuniform List<scalar> 
1000
(
0
0
0
0
0
0
0
0
0
0
0
0
0
0
0
0
0
0
0
0
0
0
0
0
0
0
0
0
0
0
0
0
0
0
0
0
0
0
0
0
0
0
0
0
0
0
0
0
0
0
0
0
0
0
0
0
0
0
0
0
0
0
0
0
0
0
0
0
0
0
0
0
0
0
0
0
0
0
0
0
0
0
0
0
0
0
0
0
0
0
0
0
0
0
0
0
0
0
0
0
0
0
0
0
0
0
0
0
0
0
0
0
0
0
0
0
0
0
0
0
0
0
0
0
0
0
0
0
0
0
0
0
0
0
0
0
0
0
0
0
0
0
0
0
0
0
0
0
0
0
0
0
0
0
0
0
0
0
0
0
0
0
0
0
0
0
0
0
0
0
0
0
0
-4.94066e-324
2.96439e-323
-4.94066e-324
2.96439e-323
-4.94066e-324
2.96439e-323
-4.94066e-324
2.96439e-323
-4.94066e-324
2.96439e-323
-4.94066e-324
2.96439e-323
-4.94066e-324
2.96439e-323
-4.94066e-324
2.96439e-323
-4.94066e-324
2.96439e-323
-4.94066e-324
2.96439e-323
-4.94066e-324
2.96439e-323
-4.94066e-324
2.96439e-323
-4.94066e-324
2.96439e-323
-4.94066e-324
2.96439e-323
-4.94066e-324
2.96439e-323
-4.94066e-324
2.96439e-323
-4.94066e-324
2.96439e-323
-4.94066e-324
2.96439e-323
-4.94066e-324
2.96439e-323
-4.94066e-324
2.96439e-323
-4.94066e-324
2.96439e-323
-4.94066e-324
2.96439e-323
-4.94066e-324
2.96439e-323
-4.94066e-324
2.96439e-323
-4.94066e-324
2.96439e-323
-4.94066e-324
2.96439e-323
-4.94066e-324
2.96439e-323
-4.94066e-324
2.96439e-323
-4.94066e-324
2.96439e-323
-4.94066e-324
2.96439e-323
-4.94066e-324
2.96439e-323
-4.94066e-324
2.96439e-323
-4.94066e-324
2.96439e-323
-4.94066e-324
2.96439e-323
-4.94066e-324
2.96439e-323
-4.94066e-324
2.96439e-323
-4.94066e-324
2.96439e-323
-4.94066e-324
2.96439e-323
-4.94066e-324
2.96439e-323
-4.94066e-324
2.96439e-323
-4.94066e-324
2.96439e-323
-4.94066e-324
2.96439e-323
-4.94066e-324
9.88131e-324
2.96439e-323
5.43472e-323
7.41098e-323
9.88131e-323
1.18576e-322
1.43279e-322
1.63042e-322
1.87745e-322
2.12448e-322
2.37152e-322
2.61855e-322
2.86558e-322
3.06321e-322
3.26083e-322
3.45846e-322
3.65609e-322
4.15015e-322
4.00193e-322
3.7549e-322
3.55727e-322
3.35965e-322
3.16202e-322
2.96439e-322
2.76677e-322
-9.38725e-323
-4.7035e-321
-6.68965e-320
-8.34679e-319
-2.59394e-317
-1.46769e-315
-6.08057e-314
-1.79852e-312
-4.15497e-311
-8.06381e-310
-1.37742e-308
-2.11773e-307
-2.94898e-306
-3.72033e-305
-4.25603e-304
-4.43559e-303
-4.26053e-302
-3.84626e-301
-3.36501e-300
-2.97252e-299
-2.75226e-298
-2.77617e-297
-1.71752e-296
-1.64284e-296
1.17144e-295
2.05181e-294
2.68772e-293
3.45901e-292
4.50024e-291
6.05264e-290
8.40296e-289
1.28598e-287
2.16448e-286
4.64171e-285
1.0739e-283
3.54836e-282
9.88749e-281
7.57268e-279
2.70657e-277
2.16456e-274
1.81924e-272
7.00892e-271
1.58755e-269
2.41525e-268
2.66122e-267
2.22031e-266
1.42006e-265
7.16101e-265
3.52578e-264
2.70192e-263
3.18665e-262
7.08642e-262
-1.47466e-261
-5.12842e-260
-9.64846e-259
-1.67773e-257
-2.84984e-256
-4.65073e-255
-7.44918e-254
-1.10975e-252
-1.66941e-251
-2.16823e-250
-3.76656e-249
-7.91911e-248
-2.01919e-246
-5.91126e-245
-1.50592e-243
-2.97079e-242
-4.54787e-241
-5.52284e-240
-5.47686e-239
-4.54732e-238
-3.30798e-237
-2.37276e-236
-1.7698e-235
-3.34893e-235
3.77257e-235
1.57514e-233
2.87107e-232
5.0346e-231
8.55201e-230
1.43813e-228
2.34293e-227
3.79695e-226
5.76131e-225
8.9574e-224
1.20259e-222
2.27588e-221
5.34666e-220
1.26313e-218
3.10292e-217
7.08748e-216
1.34244e-214
2.03979e-213
2.50226e-212
2.52554e-211
2.1408e-210
1.57299e-209
1.05812e-208
7.06311e-208
2.33109e-207
1.64316e-207
-1.77428e-206
-2.83541e-205
-3.89679e-204
-5.44561e-203
-7.7361e-202
-1.09606e-200
-1.54759e-199
-2.1372e-198
-2.95365e-197
-3.91239e-196
-5.51088e-195
-7.09546e-194
-1.96766e-192
-7.89255e-191
-2.02245e-189
-5.51904e-188
-1.6947e-186
-4.314e-185
-8.25183e-184
-1.21113e-182
-1.42058e-181
-1.38143e-180
-1.14715e-179
-8.69919e-179
-6.60141e-178
-3.09823e-177
-3.03928e-177
1.24591e-176
2.19556e-175
2.88284e-174
3.09934e-173
3.36501e-172
4.92309e-171
7.76965e-170
9.83114e-169
8.27586e-168
7.23792e-167
1.84622e-165
2.94729e-164
2.36668e-163
1.02805e-162
6.8472e-162
2.67488e-160
2.22674e-159
-2.61837e-159
-5.48423e-159
2.98166e-157
4.71185e-156
-6.16236e-157
-1.13904e-154
5.32949e-155
1.03682e-152
1.60141e-152
-2.85588e-151
-9.02774e-151
7.0219e-150
6.91618e-149
-7.59548e-149
-4.82977e-147
-4.90479e-147
1.42106e-145
4.33204e-145
-2.55622e-144
-3.90944e-143
-8.55448e-144
1.68728e-141
3.20057e-141
-3.0075e-140
-4.51852e-139
-2.43306e-139
1.22725e-137
1.77945e-137
-2.2924e-136
-4.94889e-135
-5.7303e-135
6.84644e-134
1.36702e-133
-1.09054e-132
-3.38522e-131
-1.34546e-130
1.59944e-130
1.91058e-129
-1.61645e-129
-1.20891e-127
-1.55174e-126
-1.50671e-126
2.33277e-125
1.24455e-124
-6.77242e-125
-5.78305e-123
-2.79205e-122
8.14083e-123
1.04313e-120
4.61351e-120
-1.8916e-120
-1.75626e-118
-1.05135e-117
-3.09421e-118
2.49114e-116
2.09433e-115
1.55744e-115
-3.05372e-114
-1.76033e-113
-2.79429e-114
4.16734e-112
6.52341e-111
1.80579e-110
-1.40885e-110
-6.3991e-109
-2.34098e-108
5.17481e-109
6.25212e-107
6.30177e-106
7.3026e-106
-3.9197e-105
-7.3925e-104
-3.23157e-103
-1.17495e-103
5.02669e-102
5.98198e-101
1.00993e-100
-1.91767e-100
-4.69115e-99
-3.69935e-98
-3.99204e-98
1.96127e-97
3.32955e-96
1.82497e-95
1.4754e-95
-1.40454e-94
-1.99824e-93
-1.21688e-92
-1.17574e-92
6.51275e-92
9.79789e-91
5.37643e-90
4.85671e-90
-3.05406e-89
-4.27037e-88
-3.27816e-87
-4.77322e-87
6.76228e-87
1.48992e-85
1.41665e-84
4.56916e-84
2.35837e-84
-3.92965e-83
-4.36177e-82
-2.96426e-81
-4.13693e-81
4.87828e-81
1.07494e-79
9.55316e-79
3.55422e-78
2.75812e-78
-1.83806e-77
-2.1086e-76
-1.68496e-75
-1.23785e-74
-8.80787e-74
-6.14837e-73
-4.22777e-72
-2.86892e-71
-1.92093e-70
-1.26356e-69
-5.07774e-69
-5.05568e-69
1.1446e-68
1.55405e-67
1.14107e-66
7.42036e-66
4.62165e-65
2.81593e-64
1.68949e-63
1.00034e-62
5.84961e-62
3.37933e-61
1.92896e-60
1.08804e-59
6.0649e-59
3.34113e-58
1.81919e-57
9.79049e-57
5.20832e-56
2.73893e-55
1.4239e-54
7.31841e-54
3.71889e-53
1.8685e-52
9.28274e-52
4.56021e-51
2.21533e-50
1.06428e-49
5.0566e-49
2.3761e-48
1.10431e-47
5.07643e-47
2.30824e-46
1.03819e-45
4.61917e-45
2.03309e-44
8.85257e-44
3.81345e-43
1.62524e-42
6.85302e-42
2.85907e-41
1.18021e-40
4.82054e-40
1.94827e-39
7.79169e-39
3.08357e-38
1.20761e-37
4.68016e-37
1.79501e-36
6.81324e-36
2.55936e-35
9.515e-35
3.50102e-34
1.27496e-33
4.59539e-33
1.63938e-32
5.78863e-32
2.02309e-31
6.99855e-31
2.39638e-30
8.12207e-30
2.72486e-29
9.04885e-29
2.97453e-28
9.67881e-28
3.11752e-27
9.93987e-27
3.13719e-26
9.80146e-26
3.03133e-25
9.28041e-25
2.81252e-24
8.43758e-24
2.50573e-23
7.36621e-23
2.14361e-22
6.17505e-22
1.76085e-21
4.97042e-21
1.38882e-20
3.84134e-20
1.05171e-19
2.85024e-19
7.64601e-19
2.03026e-18
5.33614e-18
1.38821e-17
3.57458e-17
9.11031e-17
2.29811e-16
5.73759e-16
1.41775e-15
3.46717e-15
8.39152e-15
2.00997e-14
4.76438e-14
1.11759e-13
2.59421e-13
5.95879e-13
1.35435e-12
3.04582e-12
6.77745e-12
1.4921e-11
3.25002e-11
7.00341e-11
1.49297e-10
3.14838e-10
6.56754e-10
1.3551e-09
2.76551e-09
5.58199e-09
1.11426e-08
2.1996e-08
4.29372e-08
8.2876e-08
1.58161e-07
2.98412e-07
5.56606e-07
1.02627e-06
1.87033e-06
3.36891e-06
5.997e-06
1.05491e-05
1.83353e-05
3.14859e-05
5.34136e-05
8.95059e-05
0.000148138
0.000242129
0.00039079
0.000622729
0.000979626
0.00152114
0.00233111
0.00352518
0.00525967
0.00774155
0.0112388
0.0160902
0.0227132
0.0316081
0.0433551
0.058604
0.0780513
0.102404
0.132332
0.168401
0.211
0.260265
0.315998
0.377613
0.444093
0.513997
0.585507
0.656525
0.72482
0.788203
0.844732
0.892893
0.931746
0.961003
0.981028
0.992831
0.998204
0.999766
0.999988
1
1
1
1
1
1
1
1
1
1
1
1
1
1
1
1
1
1
1
1
1
1
1
1
1
1
1
1
1
1
1
1
1
1
1
1
1
1
1
1
1
1
1
1
1
1
1
1
1
1
1
0.999999
0.999999
0.999998
0.999997
0.999994
0.999989
0.999982
0.999968
0.999947
0.99991
0.999852
0.999758
0.999609
0.999377
0.999019
0.998477
0.997667
0.996472
0.994736
0.992252
0.988752
0.983898
0.977271
0.968371
0.956618
0.941362
0.921906
0.897544
0.867606
0.831526
0.788916
0.739641
0.683898
0.622276
0.555791
0.485884
0.414375
0.343362
0.275076
0.211704
0.155188
0.107043
0.068205
0.0389624
0.0189505
0.00715849
0.00179256
0.000233435
1.15958e-05
1.58597e-07
4.4574e-10
2.02821e-13
1.82726e-17
1.62179e-21
1.42185e-25
1.23507e-29
1.06626e-33
9.17576e-38
7.89003e-42
6.7905e-46
5.85467e-50
5.05791e-54
4.37715e-58
3.79262e-62
3.28828e-66
2.85151e-70
2.47238e-74
2.143e-78
1.85684e-82
1.60841e-86
1.39293e-90
1.20617e-94
1.04442e-98
9.04383e-103
7.83161e-107
6.78224e-111
5.87377e-115
5.08714e-119
4.40593e-123
3.81595e-127
3.30495e-131
2.86234e-135
2.47898e-139
2.14693e-143
1.85935e-147
1.61028e-151
1.39456e-155
1.20775e-159
1.04596e-163
9.05839e-168
7.84492e-172
6.794e-176
5.88385e-180
5.09563e-184
4.41299e-188
3.8218e-192
3.3098e-196
2.86639e-200
2.48239e-204
2.14982e-208
1.86181e-212
1.61238e-216
1.39637e-220
1.20929e-224
1.04728e-228
9.0697e-233
7.85458e-237
6.80226e-241
5.89091e-245
5.10165e-249
4.41813e-253
3.82618e-257
3.31353e-261
2.86957e-265
2.48508e-269
2.15211e-273
1.86374e-277
1.61401e-281
1.39774e-285
1.21044e-289
1.04824e-293
9.07773e-298
7.86126e-302
6.80778e-306
5.89546e-310
5.10538e-314
4.42116e-318
3.70549e-322
0
0
0
0
0
0
0
0
0
0
0
0
0
0
0
0
0
0
0
0
0
0
0
0
0
0
0
0
0
0
0
0
0
0
0
0
0
0
0
0
0
0
0
0
0
0
0
0
0
0
0
0
0
0
0
0
0
0
0
0
0
0
0
0
0
0
0
0
0
0
0
0
0
0
0
0
0
0
0
0
0
0
0
0
0
0
0
0
0
0
0
0
0
0
0
0
0
0
0
0
0
0
0
0
0
)
;

boundaryField
{
    sides
    {
        type            zeroGradient;
    }
    empty
    {
        type            empty;
    }
}


// ************************************************************************* //
