/*--------------------------------*- C++ -*----------------------------------*\
| =========                 |                                                 |
| \\      /  F ield         | OpenFOAM: The Open Source CFD Toolbox           |
|  \\    /   O peration     | Version:  2312                                  |
|   \\  /    A nd           | Website:  www.openfoam.com                      |
|    \\/     M anipulation  |                                                 |
\*---------------------------------------------------------------------------*/
FoamFile
{
    version     2.0;
    format      ascii;
    arch        "LSB;label=32;scalar=64";
    class       volScalarField;
    location    "2";
    object      T;
}
// * * * * * * * * * * * * * * * * * * * * * * * * * * * * * * * * * * * * * //

dimensions      [0 0 0 1 0 0 0];

internalField   nonuniform List<scalar> 
1000
(
2.06093e-138
5.34758e-138
1.73817e-137
5.77601e-137
1.92051e-136
6.37682e-136
2.11405e-135
6.9975e-135
2.31251e-134
7.63018e-134
2.5136e-133
8.26737e-133
2.71485e-132
8.9008e-132
2.91352e-131
9.52156e-131
3.10671e-130
1.01203e-129
3.29142e-129
1.06874e-128
3.4646e-128
1.12132e-127
3.62326e-127
1.16885e-126
3.76451e-126
1.21045e-125
3.8857e-125
1.24531e-124
3.98446e-124
1.27275e-123
4.05878e-123
1.29219e-122
4.10711e-122
1.30323e-121
4.12837e-121
1.3056e-120
4.12202e-120
1.29921e-119
4.08807e-119
1.28417e-118
4.02709e-118
1.26073e-117
3.94017e-117
1.22932e-116
3.82892e-116
1.19054e-115
3.69541e-115
1.14508e-114
3.54211e-114
1.0938e-113
3.37179e-113
1.0376e-112
3.18746e-112
9.77468e-112
2.99228e-111
9.14409e-111
2.78944e-110
8.49437e-110
2.58214e-109
7.83539e-109
2.37341e-108
7.17655e-108
2.16614e-107
6.52653e-107
1.96292e-106
5.89315e-106
1.76609e-105
5.28319e-105
1.5776e-104
4.70235e-104
1.39909e-103
4.15518e-103
1.23181e-102
3.64508e-102
1.07666e-101
3.17433e-101
9.34181e-101
2.74417e-100
8.04621e-100
2.35488e-99
6.87928e-99
2.00591e-98
5.83812e-98
1.69599e-97
4.91773e-97
1.42329e-96
4.11155e-96
1.1855e-95
3.41176e-95
9.80023e-95
2.80977e-94
8.04048e-94
2.2965e-93
6.54672e-93
1.86273e-92
5.28988e-92
1.49937e-91
4.24164e-91
1.19763e-90
3.37499e-90
9.4925e-90
2.66468e-89
7.46561e-89
2.08756e-88
5.82589e-88
1.62269e-87
4.51081e-87
1.25147e-86
3.46519e-86
9.57582e-86
2.64097e-85
7.26924e-85
1.99687e-84
5.47447e-84
1.49784e-83
4.08997e-83
1.11455e-82
3.03114e-82
8.22687e-82
2.22835e-81
6.02354e-81
1.62494e-80
4.37458e-80
1.1753e-79
3.15117e-79
8.43147e-79
2.25134e-78
5.99907e-78
1.59525e-77
4.23324e-77
1.12102e-76
2.96247e-76
7.81243e-76
2.05594e-75
5.39912e-75
1.41489e-74
3.70007e-74
9.65558e-74
2.51436e-73
6.53366e-73
1.69419e-72
4.3837e-72
1.13186e-71
2.91617e-71
7.49726e-71
1.92334e-70
4.92351e-70
1.25763e-69
3.20547e-69
8.15241e-69
2.06888e-68
5.23885e-68
1.32369e-67
3.33722e-67
8.39515e-67
2.10725e-66
5.27768e-66
1.31889e-65
3.2886e-65
8.18177e-65
2.03102e-64
5.03051e-64
1.24319e-63
3.06538e-63
7.54146e-63
1.85117e-62
4.53372e-62
1.10784e-61
2.70094e-61
6.56995e-61
1.59447e-60
3.86081e-60
9.32702e-60
2.24806e-59
5.40596e-59
1.29698e-58
3.10447e-58
7.41366e-58
1.76631e-57
4.19844e-57
9.95618e-57
2.35548e-56
5.55963e-56
1.30915e-55
3.07543e-55
7.20765e-55
1.6852e-54
3.93077e-54
9.14674e-54
2.12333e-53
4.91732e-53
1.13605e-52
2.61829e-52
6.01994e-52
1.38075e-51
3.15926e-51
7.21106e-51
1.64193e-50
3.7295e-50
8.4505e-50
1.91007e-49
4.30671e-49
9.68662e-49
2.17333e-48
4.86409e-48
1.08592e-47
2.41833e-47
5.37215e-47
1.1904e-46
2.63118e-46
5.80117e-46
1.27581e-45
2.79872e-45
6.12397e-45
1.33661e-44
2.90985e-44
6.31873e-44
1.36861e-43
2.95675e-43
6.37139e-43
1.36942e-42
2.93574e-42
6.27732e-42
1.33877e-41
2.84779e-41
6.04196e-41
1.27854e-40
2.69844e-40
5.68031e-40
1.19258e-39
2.49724e-39
5.21535e-39
1.08632e-38
2.25671e-38
4.67563e-38
9.6615e-38
1.99108e-37
4.09229e-37
8.38838e-37
1.71483e-36
3.49615e-36
7.10859e-36
1.44145e-35
2.91497e-35
5.87876e-35
1.18236e-34
2.37152e-34
4.74363e-34
9.46237e-34
1.88231e-33
3.73407e-33
7.38705e-33
1.45731e-32
2.86699e-32
5.62456e-32
1.10036e-31
2.14668e-31
4.17617e-31
8.10152e-31
1.56722e-30
3.02317e-30
5.81522e-30
1.11541e-29
2.13338e-29
4.06875e-29
7.73769e-29
1.46729e-28
2.77443e-28
5.23095e-28
9.83406e-28
1.84344e-27
3.44561e-27
6.42157e-27
1.1933e-26
2.21102e-26
4.08475e-26
7.52426e-26
1.38193e-25
2.53063e-25
4.62051e-25
8.41137e-25
1.52671e-24
2.76284e-24
4.98495e-24
8.9675e-24
1.60836e-23
2.87603e-23
5.12742e-23
9.11376e-23
1.61505e-22
2.8534e-22
5.02602e-22
8.82607e-22
1.54522e-21
2.69704e-21
4.69309e-21
8.14145e-21
1.40803e-20
2.42766e-20
4.1728e-20
7.15032e-20
1.22146e-19
2.08013e-19
3.53144e-19
5.97672e-19
1.00837e-18
1.69598e-18
2.84355e-18
4.7527e-18
7.91872e-18
1.31523e-17
2.17761e-17
3.59407e-17
5.91312e-17
9.69771e-17
1.58541e-16
2.58364e-16
4.19697e-16
6.79598e-16
1.09693e-15
1.76486e-15
2.83039e-15
4.52465e-15
7.2098e-15
1.14514e-14
1.81295e-14
2.86093e-14
4.50006e-14
7.0553e-14
1.10255e-13
1.71736e-13
2.66627e-13
4.12597e-13
6.36388e-13
9.78343e-13
1.4991e-12
2.28949e-12
3.48507e-12
5.28748e-12
7.99552e-12
1.20505e-11
1.81017e-11
2.71012e-11
4.044e-11
6.01429e-11
8.91468e-11
1.31696e-10
1.93904e-10
2.84539e-10
4.16137e-10
6.06556e-10
8.81133e-10
1.2757e-09
1.84071e-09
2.64701e-09
3.79362e-09
5.41852e-09
7.71317e-09
1.09423e-08
1.54706e-08
2.17986e-08
3.06103e-08
4.28376e-08
5.97446e-08
8.304e-08
1.15024e-07
1.58783e-07
2.18438e-07
2.99477e-07
4.09173e-07
5.5713e-07
7.55986e-07
1.02229e-06
1.37766e-06
1.85016e-06
2.47617e-06
3.30258e-06
4.38962e-06
5.81434e-06
7.6749e-06
1.00959e-05
1.32347e-05
1.72895e-05
2.25085e-05
2.92018e-05
3.77545e-05
4.86435e-05
6.24565e-05
7.99149e-05
0.0001019
0.000129485
0.000163969
0.000206919
0.00026022
0.00032612
0.000407301
0.000506938
0.000628775
0.000777211
0.000957385
0.00117528
0.00143781
0.00175295
0.00212985
0.00257893
0.00311205
0.00374257
0.00448551
0.00535767
0.0063777
0.00756624
0.00894596
0.0105416
0.0123802
0.0144906
0.0169041
0.0196539
0.022775
0.0263044
0.0302805
0.0347429
0.0397325
0.0452905
0.0514584
0.0582773
0.0657877
0.0740285
0.0830367
0.0928466
0.103489
0.114992
0.127377
0.140662
0.154859
0.169972
0.186
0.202935
0.220759
0.239449
0.258973
0.27929
0.300353
0.322106
0.344487
0.367428
0.390852
0.41468
0.438826
0.463203
0.487719
0.512281
0.536797
0.561174
0.58532
0.609148
0.632572
0.655513
0.677894
0.699647
0.72071
0.741027
0.760551
0.779241
0.797065
0.814
0.830028
0.845141
0.859338
0.872623
0.885008
0.89651
0.907153
0.916962
0.92597
0.93421
0.94172
0.948538
0.954705
0.960262
0.965249
0.969709
0.973682
0.977208
0.980324
0.983067
0.985472
0.987571
0.989396
0.990974
0.992332
0.993493
0.994478
0.995308
0.995997
0.996562
0.997014
0.997363
0.997618
0.997785
0.997867
0.997867
0.997785
0.997618
0.997363
0.997014
0.996562
0.995997
0.995308
0.994478
0.993493
0.992332
0.990974
0.989396
0.987571
0.985472
0.983067
0.980324
0.977208
0.973682
0.969709
0.965249
0.960262
0.954705
0.948538
0.94172
0.93421
0.92597
0.916962
0.907153
0.89651
0.885008
0.872623
0.859338
0.845141
0.830028
0.814
0.797065
0.779241
0.760551
0.741027
0.72071
0.699647
0.677894
0.655513
0.632572
0.609148
0.58532
0.561174
0.536797
0.512281
0.487719
0.463203
0.438826
0.41468
0.390852
0.367428
0.344487
0.322106
0.300353
0.27929
0.258973
0.239449
0.220759
0.202935
0.186
0.169972
0.154859
0.140662
0.127377
0.114992
0.103489
0.0928466
0.0830367
0.0740285
0.0657877
0.0582773
0.0514584
0.0452905
0.0397325
0.0347429
0.0302805
0.0263044
0.022775
0.0196539
0.0169041
0.0144906
0.0123802
0.0105416
0.00894596
0.00756624
0.0063777
0.00535767
0.00448551
0.00374257
0.00311205
0.00257893
0.00212985
0.00175295
0.00143781
0.00117528
0.000957385
0.000777211
0.000628775
0.000506938
0.000407301
0.00032612
0.00026022
0.000206919
0.000163969
0.000129485
0.0001019
7.99149e-05
6.24565e-05
4.86435e-05
3.77545e-05
2.92018e-05
2.25085e-05
1.72895e-05
1.32347e-05
1.00959e-05
7.6749e-06
5.81434e-06
4.38962e-06
3.30258e-06
2.47617e-06
1.85016e-06
1.37766e-06
1.02229e-06
7.55986e-07
5.5713e-07
4.09173e-07
2.99477e-07
2.18438e-07
1.58783e-07
1.15024e-07
8.304e-08
5.97446e-08
4.28376e-08
3.06103e-08
2.17986e-08
1.54706e-08
1.09423e-08
7.71317e-09
5.41852e-09
3.79362e-09
2.64701e-09
1.84071e-09
1.2757e-09
8.81133e-10
6.06556e-10
4.16137e-10
2.84539e-10
1.93904e-10
1.31696e-10
8.91468e-11
6.01429e-11
4.044e-11
2.71012e-11
1.81017e-11
1.20505e-11
7.99552e-12
5.28748e-12
3.48507e-12
2.28949e-12
1.4991e-12
9.78343e-13
6.36388e-13
4.12597e-13
2.66627e-13
1.71736e-13
1.10255e-13
7.0553e-14
4.50006e-14
2.86093e-14
1.81295e-14
1.14514e-14
7.2098e-15
4.52465e-15
2.83039e-15
1.76486e-15
1.09693e-15
6.79598e-16
4.19697e-16
2.58364e-16
1.58541e-16
9.69771e-17
5.91312e-17
3.59407e-17
2.17761e-17
1.31523e-17
7.91872e-18
4.7527e-18
2.84355e-18
1.69598e-18
1.00837e-18
5.97672e-19
3.53144e-19
2.08013e-19
1.22146e-19
7.15032e-20
4.1728e-20
2.42766e-20
1.40803e-20
8.14145e-21
4.69309e-21
2.69704e-21
1.54522e-21
8.82607e-22
5.02602e-22
2.8534e-22
1.61505e-22
9.11376e-23
5.12742e-23
2.87603e-23
1.60836e-23
8.9675e-24
4.98495e-24
2.76284e-24
1.52671e-24
8.41137e-25
4.62051e-25
2.53063e-25
1.38193e-25
7.52426e-26
4.08475e-26
2.21102e-26
1.1933e-26
6.42157e-27
3.44561e-27
1.84344e-27
9.83406e-28
5.23095e-28
2.77443e-28
1.46729e-28
7.73769e-29
4.06875e-29
2.13338e-29
1.11541e-29
5.81522e-30
3.02317e-30
1.56722e-30
8.10152e-31
4.17617e-31
2.14668e-31
1.10036e-31
5.62456e-32
2.86699e-32
1.45731e-32
7.38705e-33
3.73407e-33
1.88231e-33
9.46237e-34
4.74363e-34
2.37152e-34
1.18236e-34
5.87876e-35
2.91497e-35
1.44145e-35
7.10859e-36
3.49615e-36
1.71483e-36
8.38838e-37
4.09229e-37
1.99108e-37
9.6615e-38
4.67563e-38
2.25671e-38
1.08632e-38
5.21535e-39
2.49724e-39
1.19258e-39
5.68031e-40
2.69844e-40
1.27854e-40
6.04196e-41
2.84779e-41
1.33877e-41
6.27732e-42
2.93574e-42
1.36942e-42
6.37139e-43
2.95675e-43
1.36861e-43
6.31873e-44
2.90985e-44
1.33661e-44
6.12397e-45
2.79872e-45
1.27581e-45
5.80117e-46
2.63118e-46
1.1904e-46
5.37215e-47
2.41833e-47
1.08592e-47
4.86409e-48
2.17333e-48
9.68662e-49
4.30671e-49
1.91007e-49
8.4505e-50
3.7295e-50
1.64193e-50
7.21106e-51
3.15926e-51
1.38075e-51
6.01994e-52
2.61829e-52
1.13605e-52
4.91732e-53
2.12333e-53
9.14674e-54
3.93077e-54
1.6852e-54
7.20765e-55
3.07543e-55
1.30915e-55
5.55963e-56
2.35548e-56
9.95618e-57
4.19844e-57
1.76631e-57
7.41366e-58
3.10447e-58
1.29698e-58
5.40596e-59
2.24806e-59
9.32702e-60
3.86081e-60
1.59447e-60
6.56995e-61
2.70094e-61
1.10784e-61
4.53372e-62
1.85117e-62
7.54146e-63
3.06538e-63
1.24319e-63
5.03051e-64
2.03102e-64
8.18177e-65
3.2886e-65
1.31889e-65
5.27768e-66
2.10725e-66
8.39515e-67
3.33722e-67
1.32369e-67
5.23885e-68
2.06888e-68
8.15241e-69
3.20547e-69
1.25763e-69
4.92351e-70
1.92334e-70
7.49726e-71
2.91617e-71
1.13186e-71
4.3837e-72
1.69419e-72
6.53366e-73
2.51436e-73
9.65558e-74
3.70007e-74
1.41489e-74
5.39912e-75
2.05594e-75
7.81243e-76
2.96247e-76
1.12102e-76
4.23324e-77
1.59525e-77
5.99907e-78
2.25134e-78
8.43147e-79
3.15117e-79
1.1753e-79
4.37458e-80
1.62494e-80
6.02354e-81
2.22835e-81
8.22687e-82
3.03114e-82
1.11455e-82
4.08997e-83
1.49784e-83
5.47447e-84
1.99687e-84
7.26924e-85
2.64097e-85
9.57582e-86
3.46519e-86
1.25147e-86
4.51081e-87
1.62269e-87
5.82589e-88
2.08756e-88
7.46561e-89
2.66468e-89
9.4925e-90
3.37499e-90
1.19763e-90
4.24164e-91
1.49937e-91
5.28988e-92
1.86273e-92
6.54672e-93
2.2965e-93
8.04048e-94
2.80977e-94
9.80023e-95
3.41176e-95
1.1855e-95
4.11155e-96
1.42329e-96
4.91773e-97
1.69599e-97
5.83812e-98
2.00591e-98
6.87928e-99
2.35488e-99
8.04621e-100
2.74417e-100
9.34181e-101
3.17433e-101
1.07666e-101
3.64508e-102
1.23181e-102
4.15518e-103
1.39909e-103
4.70235e-104
1.5776e-104
5.28319e-105
1.76609e-105
5.89315e-106
1.96292e-106
6.52653e-107
2.16614e-107
7.17655e-108
2.37341e-108
7.83539e-109
2.58214e-109
8.49437e-110
2.78944e-110
9.14409e-111
2.99228e-111
9.77468e-112
3.18746e-112
1.0376e-112
3.37179e-113
1.0938e-113
3.54211e-114
1.14508e-114
3.69541e-115
1.19054e-115
3.82892e-116
1.22932e-116
3.94017e-117
1.26073e-117
4.02709e-118
1.28417e-118
4.08807e-119
1.29921e-119
4.12202e-120
1.3056e-120
4.12837e-121
1.30323e-121
4.10711e-122
1.29219e-122
4.05878e-123
1.27275e-123
3.98446e-124
1.24531e-124
3.8857e-125
1.21045e-125
3.76451e-126
1.16885e-126
3.62326e-127
1.12132e-127
3.4646e-128
1.06874e-128
3.29142e-129
1.01203e-129
3.10671e-130
9.52156e-131
2.91352e-131
8.9008e-132
2.71485e-132
8.26737e-133
2.5136e-133
7.63018e-134
2.31251e-134
6.9975e-135
2.11405e-135
6.37682e-136
1.92051e-136
5.77601e-137
1.73817e-137
5.34758e-138
2.06093e-138
)
;

boundaryField
{
    sides
    {
        type            zeroGradient;
    }
    empty
    {
        type            empty;
    }
}


// ************************************************************************* //
