/*--------------------------------*- C++ -*----------------------------------*\
| =========                 |                                                 |
| \\      /  F ield         | OpenFOAM: The Open Source CFD Toolbox           |
|  \\    /   O peration     | Version:  2312                                  |
|   \\  /    A nd           | Website:  www.openfoam.com                      |
|    \\/     M anipulation  |                                                 |
\*---------------------------------------------------------------------------*/
FoamFile
{
    version     2.0;
    format      ascii;
    arch        "LSB;label=32;scalar=64";
    class       volScalarField;
    location    "1.9";
    object      T;
}
// * * * * * * * * * * * * * * * * * * * * * * * * * * * * * * * * * * * * * //

dimensions      [0 0 0 1 0 0 0];

internalField   nonuniform List<scalar> 
1000
(
0
0
0
0
0
0
0
0
0
0
0
0
0
0
0
0
0
0
0
0
0
0
0
0
0
0
0
0
0
0
0
0
0
0
0
0
0
0
0
0
0
0
0
0
0
0
0
0
0
0
0
0
0
0
0
0
0
0
0
0
0
0
0
0
0
0
0
0
0
0
0
0
0
0
0
0
0
0
0
0
0
0
0
0
0
0
0
0
0
0
0
0
0
0
0
0
0
0
0
0
0
0
0
0
0
0
0
0
0
0
0
0
0
0
0
0
0
0
0
0
0
0
0
0
0
0
0
0
0
0
0
0
0
0
0
0
0
0
0
0
0
0
0
0
0
0
0
0
0
0
0
0
0
0
0
0
0
0
0
0
0
0
0
0
0
0
0
0
0
0
0
0
0
0
0
0
0
0
0
0
0
0
0
0
0
0
0
0
0
0
0
0
0
0
0
0
0
0
0
0
0
0
0
0
0
0
0
0
0
0
0
0
0
0
0
0
0
0
0
0
0
0
0
0
0
0
0
0
0
0
0
0
0
0
0
0
0
0
0
0
0
0
0
0
0
0
0
0
0
0
0
0
0
0
0
0
0
0
0
0
0
0
0
0
0
0
0
0
0
0
0
0
0
0
0
0
0
0
0
0
0
0
0
0
0
0
0
0
0
0
0
0
0
0
0
0
0
0
0
0
0
0
0
0
0
0
0
0
0
0
0
0
0
0
0
0
0
0
0
0
0
0
0
0
0
0
0
0
0
0
0
0
0
0
0
0
0
0
0
0
0
0
0
0
0
0
0
0
0
0
0
0
0
0
0
0
0
0
0
0
0
0
0
0
0
0
0
0
0
0
0
0
0
0
0
0
0
0
0
0
0
0
0
0
0
0
0
0
0
0
0
0
0
0
0
0
0
0
0
0
0
0
0
0
2.75905e-85
-1.85214e-69
1.11291e-61
-6.53602e-58
-1.63798e-56
7.81653e-55
5.8706e-53
1.91726e-51
4.22827e-50
7.14025e-49
9.81564e-48
1.1393e-46
1.14368e-45
1.00951e-44
7.92587e-44
5.57737e-43
3.53287e-42
2.01608e-41
1.03273e-40
4.69579e-40
1.84407e-39
5.80197e-39
1.05517e-38
-3.11054e-38
-4.77968e-37
-3.3964e-36
-1.9086e-35
-9.4158e-35
-4.2457e-34
-1.78488e-33
-7.07088e-33
-2.65447e-32
-9.46726e-32
-3.21e-31
-1.03441e-30
-3.16641e-30
-9.20715e-30
-2.54653e-29
-6.72506e-29
-1.70893e-28
-4.23332e-28
-1.04091e-27
-2.58908e-27
-6.58747e-27
-1.70711e-26
-4.42067e-26
-1.11451e-25
-2.66439e-25
-5.88575e-25
-1.16474e-24
-1.95862e-24
-2.43301e-24
-7.66871e-25
7.22516e-24
2.82597e-23
6.67512e-23
1.05338e-22
5.3762e-23
-3.532e-22
-1.70486e-21
-5.01589e-21
-1.14622e-20
-2.103e-20
-2.88398e-20
-1.76993e-20
5.33819e-20
2.60385e-19
7.10126e-19
1.48707e-18
2.49512e-18
3.13025e-18
1.75345e-18
-4.96604e-18
-2.23857e-17
-5.67582e-17
-1.10054e-16
-1.66525e-16
-1.80528e-16
7.35807e-17
1.13852e-15
2.66861e-15
1.48817e-15
-7.00473e-15
-1.19636e-14
5.75018e-15
3.41469e-14
1.21144e-14
-7.03918e-14
-7.09009e-14
1.03019e-13
2.21348e-13
-6.8669e-14
-5.14654e-13
-2.22125e-13
9.58391e-13
1.10313e-12
-1.09364e-12
-3.16463e-12
-2.26893e-13
6.46139e-12
5.72635e-12
-8.34382e-12
-1.89734e-11
-8.76264e-14
3.94625e-11
3.54187e-11
-4.5386e-11
-1.149e-10
-2.49073e-11
2.14871e-10
2.56428e-10
-1.43281e-10
-6.7982e-10
-4.43743e-10
8.53495e-10
1.84778e-09
4.3759e-10
-3.22352e-09
-4.51407e-09
6.22109e-10
1.00884e-08
1.06498e-08
-5.18378e-09
-2.83281e-08
-2.61385e-08
1.91153e-08
7.67607e-08
6.72233e-08
-5.2558e-08
-2.02682e-07
-1.87549e-07
1.07012e-07
5.28628e-07
5.52642e-07
-1.14632e-07
-1.26141e-06
-1.68017e-06
-3.58937e-07
2.61226e-06
4.82517e-06
3.08261e-06
-3.76058e-06
-1.22743e-05
-1.32432e-05
-1.31015e-06
2.26668e-05
4.18495e-05
3.32207e-05
-1.44912e-05
-8.8436e-05
-0.000133771
-9.36389e-05
6.01736e-05
0.000287561
0.000439974
0.000352731
-6.37653e-05
-0.000771783
-0.00146104
-0.00154527
-0.000753021
0.00114772
0.00380259
0.00612708
0.00635711
0.00370378
-0.00281424
-0.0128878
-0.0245146
-0.0335324
-0.0342443
-0.0243956
0.000799344
0.0443765
0.10722
0.187775
0.282248
0.38523
0.490567
0.592291
0.685406
0.766403
0.833452
0.886298
0.925939
0.9542
0.973299
0.985482
0.992766
0.996804
0.998838
0.999727
0.999991
1
1
1
1
1
1
1
1
1
1
1
1
1
1
1
1
1
1
1
1
1
1
1
1
1
1
1
1
1
1
1
1
1
1
1
1
1
1
1
0.999999
0.999999
1
1
1
1
0.999997
0.999995
0.999997
1
1.00001
1.00001
1
0.999977
0.999958
0.999967
1.00001
1.00009
1.00013
1.00009
0.99994
0.999713
0.999561
0.999649
1.00007
1.00077
1.00146
1.00154
1.00075
0.998851
0.996195
0.993877
0.99365
0.996298
1.00282
1.0129
1.02453
1.03352
1.03422
1.02435
0.999129
0.955529
0.892664
0.812094
0.717613
0.614633
0.509306
0.407596
0.3145
0.233522
0.166492
0.113662
0.0740344
0.0457832
0.0266913
0.0145132
0.00723109
0.00319456
0.00116163
0.000272498
8.77261e-06
3.47936e-16
3.43737e-16
3.36655e-16
3.23699e-16
3.05505e-16
2.82815e-16
2.56689e-16
2.2844e-16
1.99473e-16
1.71102e-16
1.44398e-16
1.2011e-16
9.86552e-17
8.01635e-17
6.45475e-17
5.15779e-17
4.09502e-17
3.23351e-17
2.54114e-17
1.98858e-17
1.55013e-17
1.20393e-17
9.31745e-18
7.18595e-18
5.52299e-18
4.23024e-18
3.22885e-18
2.45589e-18
1.86136e-18
1.4057e-18
1.05774e-18
7.92997e-19
5.92307e-19
4.40746e-19
3.26721e-19
2.41267e-19
1.77474e-19
1.30038e-19
9.49067e-20
6.89917e-20
4.99528e-20
3.60227e-20
2.58723e-20
1.85067e-20
1.3184e-20
9.35373e-21
6.60898e-21
4.6504e-21
3.25872e-21
2.27406e-21
1.58034e-21
1.09368e-21
7.53736e-22
5.17294e-22
3.53545e-22
2.40626e-22
1.63091e-22
1.1008e-22
7.39922e-23
4.95292e-23
3.30171e-23
2.19192e-23
1.44918e-23
9.54198e-24
6.25716e-24
4.08645e-24
2.65797e-24
1.72186e-24
1.11095e-24
7.13914e-25
4.56943e-25
2.91306e-25
1.84975e-25
1.16994e-25
7.37069e-26
4.62542e-26
2.89136e-26
1.8004e-26
1.11675e-26
6.90041e-27
4.24746e-27
2.60452e-27
1.59102e-27
9.68237e-28
5.87018e-28
3.54562e-28
2.13359e-28
1.27913e-28
7.64021e-29
4.54668e-29
2.69579e-29
1.59252e-29
9.37347e-30
5.49712e-30
3.21216e-30
1.87021e-30
1.08498e-30
6.27185e-31
3.61259e-31
2.07346e-31
1.18586e-31
6.75825e-32
3.83801e-32
2.17197e-32
1.22484e-32
6.88325e-33
3.85476e-33
2.15128e-33
1.19646e-33
6.63137e-34
3.66286e-34
2.01629e-34
1.10613e-34
6.04762e-35
3.29529e-35
1.78953e-35
9.68553e-36
5.2246e-36
2.80888e-36
1.50511e-36
8.03824e-37
4.27877e-37
2.27011e-37
1.20046e-37
6.32744e-38
3.32423e-38
1.74077e-38
9.0863e-39
4.72747e-39
2.45173e-39
1.26743e-39
6.53113e-40
3.35481e-40
1.71779e-40
8.76793e-41
4.46123e-41
2.26281e-41
1.14415e-41
5.76712e-42
2.89792e-42
1.45167e-42
7.24948e-43
3.60919e-43
1.79135e-43
8.86386e-44
4.37263e-44
2.15052e-44
1.05446e-44
5.15478e-45
2.51237e-45
1.22083e-45
5.91471e-46
2.85706e-46
1.376e-46
6.60746e-47
3.16354e-47
1.51021e-47
7.18843e-48
3.41166e-48
1.61449e-48
7.61818e-49
3.58438e-49
1.68163e-49
7.8669e-50
3.66977e-50
1.70702e-50
7.91787e-51
3.66229e-51
1.68918e-51
7.76927e-52
3.56346e-52
1.62988e-52
7.43417e-53
3.3815e-53
1.53388e-53
6.9387e-54
3.13024e-54
1.40829e-54
6.3187e-55
2.8274e-55
1.26175e-55
5.61553e-56
2.49255e-56
1.10341e-56
4.87164e-57
2.14516e-57
9.42095e-58
4.12654e-58
1.80275e-58
7.85506e-59
3.41373e-59
1.47972e-59
6.39742e-60
2.75872e-60
1.18657e-60
5.09054e-61
2.17833e-61
9.29773e-62
3.95847e-62
1.68104e-62
7.12084e-63
3.0088e-63
1.26814e-63
5.33156e-64
2.23594e-64
9.35383e-65
3.9034e-65
1.6249e-65
6.74748e-66
2.79507e-66
1.155e-66
4.76121e-67
1.95793e-67
8.03206e-68
3.28707e-68
1.34199e-68
5.46572e-69
2.2208e-69
9.00199e-70
3.6403e-70
1.46862e-70
5.91093e-71
2.37347e-71
9.5081e-72
3.80005e-72
1.51522e-72
6.02772e-73
2.39236e-73
9.47325e-74
3.7426e-74
1.47521e-74
5.80149e-75
2.27635e-75
8.91151e-76
3.48082e-76
1.35654e-76
5.2748e-77
2.04647e-77
7.92202e-78
3.05983e-78
1.17922e-78
4.53452e-79
1.73984e-79
6.66085e-80
2.54447e-80
9.69876e-81
3.68882e-81
1.39996e-81
5.30151e-82
2.0033e-82
7.55365e-83
2.84207e-83
1.06704e-83
3.99763e-84
1.49451e-84
5.57535e-85
2.07552e-85
7.71018e-86
2.85818e-86
1.05731e-86
3.90307e-87
1.43782e-87
5.28569e-88
1.93909e-88
7.09897e-89
2.59357e-89
9.456e-90
3.44055e-90
1.24928e-90
4.52697e-91
1.63709e-91
5.90824e-92
2.12798e-92
7.64892e-93
2.74386e-93
9.8232e-94
3.50976e-94
1.25152e-94
4.45383e-95
1.58187e-95
5.60726e-96
1.9837e-96
7.00401e-97
2.46813e-97
8.68045e-98
3.04699e-98
1.06747e-98
3.7325e-99
1.30258e-99
4.53706e-100
1.57729e-100
5.47287e-101
1.89535e-101
6.55145e-102
2.26027e-102
7.78327e-103
2.67512e-103
9.17709e-104
3.14233e-104
1.07395e-104
3.6636e-105
1.24744e-105
4.23962e-106
)
;

boundaryField
{
    sides
    {
        type            zeroGradient;
    }
    empty
    {
        type            empty;
    }
}


// ************************************************************************* //
