/*--------------------------------*- C++ -*----------------------------------*\
| =========                 |                                                 |
| \\      /  F ield         | OpenFOAM: The Open Source CFD Toolbox           |
|  \\    /   O peration     | Version:  2312                                  |
|   \\  /    A nd           | Website:  www.openfoam.com                      |
|    \\/     M anipulation  |                                                 |
\*---------------------------------------------------------------------------*/
FoamFile
{
    version     2.0;
    format      ascii;
    arch        "LSB;label=32;scalar=64";
    class       volScalarField;
    location    "2.7";
    object      T;
}
// * * * * * * * * * * * * * * * * * * * * * * * * * * * * * * * * * * * * * //

dimensions      [0 0 0 1 0 0 0];

internalField   nonuniform List<scalar> 
1000
(
0
0
0
0
0
0
0
0
0
0
0
0
0
0
0
0
0
0
0
0
0
0
0
0
0
0
0
0
0
0
0
0
0
0
0
0
0
0
0
0
0
0
0
0
0
0
0
0
0
0
0
0
0
0
0
0
0
0
0
0
0
0
0
0
0
0
0
0
0
0
0
0
0
0
0
0
0
0
0
0
0
0
0
0
0
0
0
0
0
0
0
0
0
0
0
0
0
0
0
0
0
0
0
0
0
0
0
0
0
0
0
0
0
0
0
0
0
0
0
0
0
0
0
0
0
0
0
0
0
0
0
0
0
0
0
0
0
0
0
0
0
0
0
0
0
0
0
0
0
0
0
0
0
0
0
0
0
0
0
0
0
0
0
0
0
0
0
0
0
0
0
0
0
0
0
0
0
0
0
0
0
0
0
0
0
0
0
0
0
0
0
0
0
0
0
0
0
0
0
0
0
0
0
0
0
0
0
0
0
0
0
0
0
0
0
0
0
0
0
0
0
0
0
0
0
0
0
0
0
0
0
0
0
0
0
0
0
0
0
0
0
0
0
0
0
0
0
0
0
0
0
0
0
0
0
0
0
0
0
0
0
0
0
0
0
0
0
0
0
0
0
0
0
0
0
0
0
0
0
0
0
0
0
0
0
0
0
0
0
0
0
0
0
0
0
0
0
0
0
0
0
0
0
0
0
0
0
0
0
0
0
0
0
0
0
0
0
0
0
0
0
0
0
0
0
0
0
0
0
0
0
0
0
0
0
0
0
0
0
0
0
0
0
0
0
0
0
0
0
0
0
0
0
0
0
0
0
0
0
0
0
0
0
0
0
0
0
0
0
0
0
0
0
0
0
0
0
0
0
0
0
0
0
0
0
0
0
0
0
0
0
0
0
0
0
0
0
0
0
0
0
0
0
0
0
0
0
0
0
0
0
0
0
0
0
0
0
0
0
0
0
0
0
0
0
0
0
0
0
0
0
0
0
0
0
0
0
0
0
0
0
0
0
0
0
0
0
0
0
0
7.94798e-78
1.37356e-75
1.18735e-73
6.84533e-72
2.96104e-70
1.02508e-68
2.95845e-67
7.32147e-66
1.58604e-64
3.05528e-63
5.29914e-62
8.35874e-61
1.2091e-59
1.61509e-58
2.0041e-57
2.32196e-56
2.52311e-55
2.58144e-54
2.49541e-53
2.2862e-52
1.99061e-51
1.65137e-50
1.3082e-49
9.91684e-49
7.20719e-48
5.03044e-47
3.37744e-46
2.18452e-45
1.36303e-44
8.21474e-44
4.78778e-43
2.70154e-42
1.47733e-41
7.83711e-41
4.03689e-40
2.02082e-39
9.83897e-39
4.66285e-38
2.15253e-37
9.68599e-37
4.2513e-36
1.82119e-35
7.61907e-35
3.11464e-34
1.24483e-33
4.86667e-33
1.86203e-32
6.97563e-32
2.55986e-31
9.2061e-31
3.24595e-30
1.1225e-29
3.80875e-29
1.26849e-28
4.14815e-28
1.3324e-27
4.20509e-27
1.3044e-26
3.97809e-26
1.19316e-25
3.52053e-25
1.02217e-24
2.92119e-24
8.21926e-24
2.27747e-23
6.21618e-23
1.67167e-22
4.4303e-22
1.15736e-21
2.98093e-21
7.57134e-21
1.8968e-20
4.68798e-20
1.14327e-19
2.75164e-19
6.53727e-19
1.53334e-18
3.55137e-18
8.12344e-18
1.83546e-17
4.09712e-17
9.03673e-17
1.96974e-16
4.24363e-16
9.03775e-16
1.903e-15
3.96219e-15
8.15846e-15
1.66156e-14
3.34746e-14
6.67208e-14
1.31586e-13
2.5681e-13
4.96046e-13
9.48396e-13
1.795e-12
3.36356e-12
6.24075e-12
1.14664e-11
2.08649e-11
3.76054e-11
6.71385e-11
1.18748e-10
2.08091e-10
3.61327e-10
6.21734e-10
1.06025e-09
1.79205e-09
3.00243e-09
4.98667e-09
8.21114e-09
1.34057e-08
2.17022e-08
3.48405e-08
5.54709e-08
8.75957e-08
1.37205e-07
2.13189e-07
3.28621e-07
5.02572e-07
7.62616e-07
1.14829e-06
1.71578e-06
2.54434e-06
3.74471e-06
5.47046e-06
7.93269e-06
1.14193e-05
1.63196e-05
2.31559e-05
3.26229e-05
4.56377e-05
6.34003e-05
8.7469e-05
0.000119851
0.000163109
0.000220493
0.000296086
0.00039498
0.00052347
0.000689282
0.00090181
0.0011724
0.00151461
0.00194456
0.00248121
0.00314667
0.00396654
0.00497017
0.00619094
0.00766645
0.00943865
0.011554
0.0140632
0.0170213
0.0204875
0.0245243
0.0291974
0.0345746
0.0407254
0.0477195
0.0556258
0.0645113
0.0744395
0.085469
0.0976518
0.111032
0.125645
0.141514
0.158652
0.177058
0.196715
0.217596
0.239655
0.262834
0.287057
0.312237
0.338274
0.365054
0.392454
0.420343
0.448582
0.477028
0.505537
0.533962
0.562161
0.589995
0.617331
0.644044
0.67002
0.695154
0.719355
0.742545
0.764657
0.785641
0.805459
0.824087
0.841512
0.857737
0.872773
0.886642
0.899376
0.911014
0.921601
0.931188
0.939831
0.947587
0.954515
0.960678
0.966134
0.970944
0.975165
0.978854
0.982063
0.984842
0.98724
0.989299
0.991059
0.992558
0.993829
0.994902
0.995805
0.99656
0.997189
0.997711
0.998142
0.998496
0.998785
0.999018
0.999206
0.999354
0.999468
0.999552
0.99961
0.999643
0.999652
0.999635
0.999592
0.999519
0.99941
0.99926
0.999059
0.998798
0.998463
0.998038
0.997506
0.996844
0.996026
0.995024
0.993805
0.992331
0.990559
0.988444
0.985936
0.982978
0.979512
0.975475
0.970802
0.965425
0.959274
0.95228
0.944374
0.935489
0.92556
0.914531
0.902348
0.888968
0.874355
0.858486
0.841348
0.822942
0.803285
0.782404
0.760345
0.737166
0.712943
0.687763
0.661726
0.634946
0.607546
0.579657
0.551418
0.522972
0.494463
0.466038
0.437839
0.410005
0.382669
0.355956
0.32998
0.304846
0.280645
0.257455
0.235343
0.214359
0.194541
0.175913
0.158488
0.142263
0.127227
0.113358
0.100624
0.0889859
0.078399
0.0688118
0.0601692
0.0524134
0.0454847
0.0393223
0.0338661
0.0290563
0.024835
0.0211465
0.0179375
0.0151577
0.0127602
0.0107012
0.00894055
0.00744132
0.00617012
0.00509679
0.00419433
0.0034387
0.00280862
0.00228541
0.00185272
0.00149635
0.00120403
0.000965222
0.000770915
0.000613449
0.000486348
0.000384165
0.000302338
0.000237071
0.000185216
0.000144177
0.000111825
8.64183e-05
6.65437e-05
5.10558e-05
3.90323e-05
2.97338e-05
2.25698e-05
1.70711e-05
1.28664e-05
9.66311e-06
7.23183e-06
5.39331e-06
4.00814e-06
2.96836e-06
2.19069e-06
1.61117e-06
1.18087e-06
8.62515e-07
6.27832e-07
4.55445e-07
3.29268e-07
2.3724e-07
1.70356e-07
1.21917e-07
8.69579e-08
6.1816e-08
4.37969e-08
3.09272e-08
2.17671e-08
1.52695e-08
1.06763e-08
7.44029e-09
5.16822e-09
3.5783e-09
2.46947e-09
1.69873e-09
1.16479e-09
7.96111e-10
5.42388e-10
3.6835e-10
2.49362e-10
1.68277e-10
1.132e-10
7.59108e-11
5.07456e-11
3.38171e-11
2.24658e-11
1.48785e-11
9.82322e-12
6.46562e-12
4.24261e-12
2.7754e-12
1.81007e-12
1.17691e-12
7.62917e-13
4.93059e-13
3.17698e-13
2.04093e-13
1.30721e-13
8.34771e-14
5.31497e-14
3.37404e-14
2.1356e-14
1.34776e-14
8.48078e-15
5.32097e-15
3.32876e-15
2.07643e-15
1.2915e-15
8.00986e-16
4.95345e-16
3.05456e-16
1.87824e-16
1.15165e-16
7.04146e-17
4.29316e-17
2.61018e-17
1.58251e-17
9.56776e-18
5.76852e-18
3.46827e-18
2.0795e-18
1.2434e-18
7.41422e-19
4.40892e-19
2.61464e-19
1.54636e-19
9.12078e-20
5.36511e-20
3.14742e-20
1.84147e-20
1.07451e-20
6.25314e-21
3.62936e-21
2.10092e-21
1.21295e-21
6.9844e-22
4.01121e-22
2.29766e-22
1.31269e-22
7.48008e-23
4.25134e-23
2.41003e-23
1.3627e-23
7.68529e-24
4.32323e-24
2.42576e-24
1.35763e-24
7.57905e-25
4.22035e-25
2.34415e-25
1.29877e-25
7.17778e-26
3.95697e-26
2.17597e-26
1.19362e-26
6.53135e-27
3.56507e-27
1.94117e-27
1.05438e-27
5.713e-28
3.08797e-28
1.66505e-28
8.9563e-29
4.80596e-29
2.57268e-29
1.37388e-29
7.3193e-30
3.89004e-30
2.06255e-30
1.091e-30
5.75728e-31
3.03099e-31
1.59195e-31
8.34174e-32
4.36082e-32
2.27439e-32
1.18346e-32
6.14378e-33
3.18209e-33
1.64433e-33
8.47748e-34
4.36063e-34
2.2379e-34
1.14588e-34
5.85402e-35
2.9839e-35
1.51752e-35
7.70023e-36
3.89851e-36
1.96934e-36
9.92598e-37
4.99182e-37
2.50483e-37
1.25412e-37
6.26524e-38
3.12306e-38
1.55335e-38
7.70918e-39
3.81767e-39
1.88644e-39
9.3013e-40
4.57619e-40
2.2466e-40
1.10056e-40
5.37983e-41
2.62417e-41
1.27729e-41
6.20384e-42
3.00683e-42
1.45425e-42
7.01858e-43
3.38022e-43
1.62453e-43
7.79116e-44
3.72879e-44
1.78085e-44
8.48761e-45
4.03685e-45
1.91603e-45
9.0754e-46
4.28979e-46
2.02356e-46
9.52592e-47
4.4752e-47
2.09814e-47
9.81688e-48
4.58389e-48
2.13609e-48
9.93409e-49
4.61069e-49
2.13567e-49
9.87263e-50
4.55478e-50
2.0972e-50
9.63717e-51
4.41979e-51
2.023e-51
9.2414e-52
4.21334e-52
1.91719e-52
8.70678e-53
3.94642e-53
1.78528e-53
8.06061e-54
3.63237e-54
1.63371e-54
7.33376e-55
3.28583e-55
1.46937e-55
6.55831e-56
2.92162e-56
1.29907e-56
)
;

boundaryField
{
    sides
    {
        type            zeroGradient;
    }
    empty
    {
        type            empty;
    }
}


// ************************************************************************* //
