/*--------------------------------*- C++ -*----------------------------------*\
| =========                 |                                                 |
| \\      /  F ield         | OpenFOAM: The Open Source CFD Toolbox           |
|  \\    /   O peration     | Version:  2312                                  |
|   \\  /    A nd           | Website:  www.openfoam.com                      |
|    \\/     M anipulation  |                                                 |
\*---------------------------------------------------------------------------*/
FoamFile
{
    version     2.0;
    format      ascii;
    arch        "LSB;label=32;scalar=64";
    class       volScalarField;
    location    "4.3";
    object      T;
}
// * * * * * * * * * * * * * * * * * * * * * * * * * * * * * * * * * * * * * //

dimensions      [0 0 0 1 0 0 0];

internalField   nonuniform List<scalar> 
1000
(
3.19024e-290
-4.17782e-290
3.40267e-289
-1.95282e-288
1.15246e-287
-6.75557e-287
3.94734e-286
-2.29822e-285
1.33331e-284
-7.70753e-284
4.43953e-283
-2.54794e-282
1.45701e-281
-8.30142e-281
4.71248e-280
-2.6653e-279
1.50188e-278
-8.43157e-278
4.71583e-277
-2.6277e-276
1.45866e-275
-8.06645e-275
4.4438e-274
-2.43872e-273
1.3332e-272
-7.26011e-272
3.93823e-271
-2.12793e-270
1.14526e-269
-6.13944e-269
3.27812e-268
-1.74334e-267
9.23403e-267
-4.87126e-266
2.5593e-265
-1.33913e-264
6.97805e-264
-3.62113e-263
1.8713e-262
-9.62986e-262
4.93472e-261
-2.51802e-260
1.27938e-259
-6.47249e-259
3.26033e-258
-1.63516e-257
8.16489e-257
-4.05904e-256
2.00893e-255
-9.8983e-255
4.8551e-254
-2.37063e-253
1.15224e-252
-5.57468e-252
2.68462e-251
-1.28681e-250
6.13903e-250
-2.9149e-249
1.37743e-248
-6.47772e-248
3.03154e-247
-1.41181e-246
6.54251e-246
-3.01681e-245
1.38411e-244
-6.31817e-244
2.8694e-243
-1.29644e-242
5.82708e-242
-2.60537e-241
1.15873e-240
-5.12594e-240
2.25535e-239
-9.86926e-239
4.29496e-238
-1.85872e-237
7.99875e-237
-3.42262e-236
1.45611e-235
-6.15892e-235
2.58975e-234
-1.08249e-233
4.49752e-233
-1.85726e-232
7.62235e-232
-3.10876e-231
1.25989e-230
-5.07327e-230
2.02962e-229
-8.06621e-229
3.1843e-228
-1.24854e-227
4.8617e-227
-1.87986e-226
7.21709e-226
-2.75072e-225
1.04069e-224
-3.90778e-224
1.45617e-223
-5.38393e-223
1.97481e-222
-7.18482e-222
2.59235e-221
-9.27423e-221
3.28911e-220
-1.15611e-219
4.02665e-219
-1.38931e-218
4.74729e-218
-1.60605e-217
5.37768e-217
-1.78157e-216
5.83729e-216
-1.89075e-215
6.05151e-215
-1.91278e-214
5.96723e-214
-1.83605e-213
5.56739e-213
-1.66214e-212
4.88034e-212
-1.40741e-211
3.9799e-211
-1.10133e-210
2.97455e-210
-7.81391e-210
1.98686e-209
-4.85584e-209
1.12817e-208
-2.44467e-208
4.75488e-208
-7.50713e-208
5.76382e-208
2.14264e-207
-1.4505e-206
5.76006e-206
-1.8787e-205
5.4143e-205
-1.40699e-204
3.28234e-204
-6.65506e-204
1.05491e-203
-6.9444e-204
-3.64129e-203
2.2125e-202
-8.20221e-202
2.45784e-201
-6.29024e-201
1.36409e-200
-2.30569e-200
1.88282e-200
6.33683e-200
-4.20803e-199
1.54804e-198
-4.43823e-198
1.04177e-197
-1.90292e-197
1.93543e-197
3.57977e-197
-2.9038e-196
1.08946e-195
-3.05131e-195
6.69929e-195
-1.0315e-194
2.7034e-195
5.50566e-194
-2.633e-193
8.13021e-193
-1.89258e-192
3.08046e-192
-1.28119e-192
-1.43412e-191
7.09387e-191
-2.15998e-190
4.78267e-190
-6.71831e-190
-1.93286e-190
5.15998e-189
-2.08077e-188
5.5394e-188
-1.01206e-187
7.18794e-188
3.46989e-187
-1.91677e-186
5.78782e-186
-1.18275e-185
1.20365e-185
2.58602e-185
-1.83344e-184
5.86961e-184
-1.22925e-183
1.26408e-183
2.69891e-183
-1.89403e-182
5.90566e-182
-1.16443e-181
9.0258e-182
3.79091e-181
-2.07324e-180
5.7818e-180
-9.61673e-180
1.12581e-180
5.63015e-179
-2.25752e-178
5.18525e-178
-5.76626e-178
-1.04858e-177
7.63079e-177
-2.24606e-176
3.72735e-176
5.80329e-179
-2.33633e-175
8.74449e-175
-1.80025e-174
1.22349e-174
6.70993e-174
-3.23393e-173
7.67975e-173
-7.91695e-173
-1.8969e-172
1.17881e-171
-3.07297e-171
3.72163e-171
5.73852e-171
-4.3471e-170
1.18579e-169
-1.49787e-169
-2.05963e-169
1.64474e-168
-4.45923e-168
5.33374e-168
9.02582e-168
-6.3818e-167
1.62943e-166
-1.63427e-166
-4.44904e-166
2.50337e-165
-5.69056e-165
3.72952e-165
2.23496e-164
-9.68652e-164
1.8335e-163
-1.19997e-164
-1.0771e-162
3.57851e-162
-5.04594e-162
-5.46034e-162
4.81354e-161
-1.20644e-160
9.19944e-161
4.38917e-160
-1.93805e-159
3.42178e-159
1.02446e-159
-2.38081e-158
6.73506e-158
-6.36945e-158
-2.10167e-157
1.02211e-156
-1.83341e-156
-6.05122e-157
1.27972e-155
-3.45473e-155
2.59989e-155
1.29632e-154
-5.3598e-154
7.93379e-154
8.86547e-154
-7.28691e-153
1.56961e-152
-1.63572e-153
-8.85155e-152
2.60432e-151
-2.09344e-151
-9.54947e-151
3.9003e-150
-5.17236e-150
-8.75968e-150
5.45337e-149
-9.71577e-149
-5.74274e-149
7.26384e-148
-1.61175e-147
3.67565e-149
9.35542e-147
-2.49025e-146
1.05752e-146
1.18053e-145
-3.68053e-145
2.60208e-145
1.47923e-144
-5.28787e-144
4.79368e-144
1.8672e-143
-7.46331e-143
7.74933e-143
2.40961e-142
-1.042e-141
1.15426e-141
3.2191e-141
-1.44484e-140
1.61254e-140
4.48184e-140
-1.99231e-139
2.11814e-139
6.49245e-139
-2.72847e-138
2.58709e-138
9.69548e-138
-3.69668e-137
2.84233e-137
1.47238e-136
-4.92209e-136
2.55417e-136
2.241e-135
-6.37689e-135
1.16367e-135
3.3723e-134
-7.92009e-134
-2.19693e-134
4.95502e-133
-9.20555e-133
-8.74777e-133
7.02104e-132
-9.56113e-132
-1.99903e-131
9.45692e-131
-7.86537e-131
-3.73913e-130
1.18683e-129
-2.49059e-130
-6.1649e-129
1.34097e-128
8.55506e-129
-9.13828e-128
1.2635e-127
2.70877e-127
-1.21247e-126
7.49527e-127
5.35903e-126
-1.39887e-125
-4.30647e-126
8.53429e-125
-1.28895e-124
-2.43465e-124
1.14138e-123
-6.48899e-124
-5.1736e-123
1.24644e-122
7.25499e-123
-8.08197e-122
9.54871e-122
2.85128e-121
-9.9301e-121
5.8256e-122
5.3405e-120
-8.87987e-120
-1.50605e-119
7.21629e-119
-3.04985e-119
-3.45781e-118
6.95496e-118
8.23614e-118
-5.01325e-117
2.99762e-117
2.27367e-116
-4.94239e-116
-5.14395e-116
3.4055e-115
-2.05276e-115
-1.54712e-114
3.25432e-114
3.84528e-114
-2.27151e-113
9.95295e-114
1.08509e-112
-1.96344e-112
-3.24422e-112
1.46773e-111
-1.40683e-112
-7.64934e-111
1.02922e-110
2.80101e-110
-8.88621e-110
-4.16395e-110
5.20951e-109
-3.92513e-109
-2.30096e-108
4.71872e-108
6.79842e-108
-3.25149e-107
1.51485e-109
1.71014e-106
-1.8524e-106
-7.01203e-106
1.70865e-105
1.90473e-105
-1.08943e-104
1.02339e-105
5.59035e-104
-6.01511e-104
-2.33315e-103
5.35478e-103
7.11152e-103
-3.44e-102
-5.5881e-103
1.8337e-101
-1.32923e-101
-8.33161e-101
1.39914e-100
3.1241e-100
-9.79805e-100
-8.12328e-100
5.69007e-99
-2.94304e-100
-2.89813e-98
2.3466e-98
1.3098e-97
-2.15654e-97
-5.14907e-97
1.46236e-96
1.61864e-96
-8.53948e-96
-2.59165e-96
4.50681e-95
-1.53805e-95
-2.18956e-94
2.10477e-94
9.82947e-94
-1.63154e-93
-4.03984e-93
1.0448e-92
1.47322e-92
-6.02483e-92
-4.3321e-92
3.23757e-91
6.11138e-92
-1.64925e-90
4.43862e-91
8.0408e-90
-5.64765e-90
-3.77276e-89
4.31839e-89
1.70861e-88
-2.78016e-88
-7.47559e-88
1.63496e-87
3.15643e-87
-9.08181e-87
-1.28158e-86
4.84922e-86
4.96699e-86
-2.51549e-85
-1.81141e-85
1.27684e-84
6.03358e-85
-6.37502e-84
-1.70314e-84
3.14337e-83
3.01227e-84
-1.53557e-82
7.04613e-84
7.45141e-82
-1.19339e-82
-3.59928e-81
8.91757e-82
1.73351e-80
-5.35105e-81
-8.33493e-80
2.85532e-80
4.00392e-79
-1.39762e-79
-1.9223e-78
6.30509e-79
9.22261e-78
-2.57792e-78
-4.41902e-77
9.01718e-78
2.11243e-76
-2.15714e-77
-1.00595e-75
-2.60961e-77
4.76278e-75
8.58901e-76
-2.23654e-74
-8.10457e-75
1.03854e-73
5.97334e-74
-4.7509e-73
-3.91855e-73
2.13089e-72
2.39144e-72
-9.3109e-72
-1.38486e-71
3.92693e-71
7.68557e-71
-1.57549e-70
-4.10789e-70
5.85726e-70
2.11875e-69
-1.90492e-69
-1.05425e-68
4.50401e-69
5.04879e-68
1.13773e-69
-2.31592e-67
-1.11656e-67
1.009e-66
1.0015e-66
-4.11356e-66
-6.67987e-66
1.52474e-65
3.86273e-65
-4.80255e-65
-2.02526e-64
1.00749e-64
9.76649e-64
1.34353e-64
-4.32739e-63
-3.33304e-63
1.73426e-62
2.63708e-62
-6.02234e-62
-1.59349e-61
1.58839e-61
8.25048e-61
-1.13911e-61
-3.76225e-60
-2.30536e-60
1.49729e-59
2.18168e-59
-4.92155e-59
-1.35922e-58
1.07107e-58
6.88329e-58
1.05036e-58
-2.93977e-57
-3.00227e-57
1.02657e-56
2.22914e-56
-2.47816e-56
-1.20074e-55
-3.43127e-57
5.19725e-55
5.11027e-55
-1.76237e-54
-3.94324e-54
3.71329e-54
2.07801e-53
5.14461e-54
-8.42402e-53
-1.1012e-52
2.45477e-52
7.35024e-52
-2.55413e-52
-3.4229e-51
-2.70344e-51
1.15601e-50
2.46143e-50
-2.0899e-50
-1.28661e-49
-6.22808e-50
4.70344e-49
8.2625e-49
-9.82852e-49
-4.67964e-48
-1.65232e-48
1.75702e-47
2.9077e-47
-3.64398e-47
-1.68267e-46
-6.66884e-47
6.12724e-46
1.08843e-45
-1.0862e-45
-5.97244e-45
-3.64475e-45
1.96363e-44
4.22552e-44
-2.16127e-44
-2.04017e-43
-2.02115e-43
5.44285e-43
1.61481e-42
1.42143e-43
-6.36387e-42
-1.0044e-41
1.075e-41
5.69331e-41
4.3365e-41
-1.63074e-40
-4.27432e-40
-1.20671e-41
1.69667e-39
2.74133e-39
-2.40071e-39
-1.48143e-38
-1.44981e-38
3.51977e-38
1.15614e-37
5.26057e-38
-3.69307e-37
-8.30485e-37
4.48533e-38
3.34384e-36
5.5863e-36
-3.40948e-36
-2.78118e-35
-3.56426e-35
4.5204e-35
2.19307e-34
2.18617e-34
-4.54153e-34
-1.6726e-33
-1.31436e-33
4.01625e-33
1.25154e-32
7.99948e-33
-3.28612e-32
-9.28302e-32
-5.16952e-32
2.54097e-31
6.87045e-31
3.71993e-31
-1.87144e-30
-5.08628e-30
-3.01906e-30
1.31072e-29
3.7589e-29
2.67069e-29
-8.62549e-29
-2.75503e-28
-2.4448e-28
5.17956e-28
1.98069e-27
2.22143e-27
-2.63884e-27
-1.37462e-26
-1.95068e-26
8.69063e-27
8.99588e-26
1.62584e-25
2.57493e-26
-5.3397e-25
-1.26546e-24
-8.6358e-25
2.64578e-24
9.0082e-24
1.07085e-23
-8.10513e-24
-5.66104e-23
-1.00083e-22
-2.79698e-23
2.90471e-22
7.70861e-22
7.67417e-22
-9.19771e-22
-4.85414e-21
-8.23517e-21
-2.57589e-21
2.25534e-20
6.29677e-20
7.33629e-20
-4.02905e-20
-3.50874e-19
-7.18051e-19
-5.57816e-19
1.08166e-18
4.58127e-18
7.71563e-18
3.73643e-18
-1.67277e-17
-5.47938e-17
-8.25234e-17
-2.61459e-17
2.09278e-16
6.24555e-16
9.14469e-16
2.97102e-16
-2.25132e-15
-6.86195e-15
-1.06056e-14
-5.46e-15
2.02027e-14
7.14807e-14
1.25181e-13
1.04122e-13
-1.23706e-13
-6.69222e-13
-1.41938e-12
-1.72877e-12
-2.08566e-13
4.91513e-12
1.42148e-11
2.38599e-11
2.16578e-11
-1.42739e-11
-1.0757e-10
-2.58159e-10
-3.95602e-10
-3.24295e-10
2.94098e-10
1.83357e-09
4.35817e-09
6.96347e-09
6.90748e-09
-9.9085e-10
-2.36441e-08
-6.607e-08
-1.23113e-07
-1.6588e-07
-1.25534e-07
1.16631e-07
7.14727e-07
1.79133e-06
3.28419e-06
4.68029e-06
4.64459e-06
6.24747e-07
-1.13605e-05
-3.636e-05
-7.89446e-05
-0.00013964
-0.000208343
-0.000253707
-0.000207747
5.45235e-05
0.000739642
0.00216235
0.0047708
0.00916533
0.0161049
0.0264951
0.0413522
0.0617415
0.0886889
0.123073
0.165505
0.216214
0.27495
0.340924
0.412796
0.488728
0.566488
0.643613
0.7176
0.78612
0.847206
0.899421
0.941951
0.974647
0.997978
1.01294
1.0209
1.02344
1.02216
1.01857
1.01393
1.00921
1.00507
1.00185
0.999665
0.998432
0.997966
0.998035
0.998411
0.998905
0.999383
0.999766
1.00003
1.00016
1.00021
1.00019
1.00014
1.00009
1.00004
1
0.999984
0.999978
0.99998
0.999985
0.999992
0.999997
1
1
1
1
1
1
1
1
1
1
1
1
1
1
1
1
1
1
1
1
1
1
1
1
1
1
1
1
1
1
0.999999
0.999998
0.999997
0.999995
0.999995
0.999999
1.00001
1.00004
1.00008
1.00014
1.00021
1.00025
1.00021
0.999945
0.99926
0.997838
0.995229
0.990835
0.983895
0.973505
0.958648
0.938259
0.911311
0.876927
0.834495
0.783786
0.72505
0.659076
0.587204
0.511272
0.433512
0.356387
0.2824
0.21388
0.152794
0.100579
0.0580485
0.0253532
0.00202213
-0.0129385
-0.0208992
-0.0234365
-0.022162
-0.0185716
-0.0139325
-0.00921477
-0.00507018
-0.00185199
0.000335156
0.00156807
0.00203378
0.00196487
0.0015888
0.00109463
0.00061685
0.000233625
-2.50948e-05
-0.000164133
-0.000208536
-0.000190866
-0.000141974
-8.57164e-05
-3.71205e-05
-3.05203e-06
1.57321e-05
2.21123e-05
2.04005e-05
1.4763e-05
8.35239e-06
3.04509e-06
-4.15468e-07
-2.07586e-06
-2.39741e-06
-1.95138e-06
-1.22672e-06
-5.46766e-07
-6.61365e-08
1.88076e-07
2.61755e-07
2.2616e-07
1.46483e-07
6.72244e-08
1.02944e-08
-1.9762e-08
-2.83108e-08
-2.41008e-08
-1.50427e-08
-6.35254e-09
-4.16038e-10
2.45101e-09
3.0203e-09
2.35067e-09
1.31604e-09
4.35525e-10
-9.86181e-11
-3.06608e-10
-3.00934e-10
-2.01023e-10
-9.13202e-11
-1.30728e-11
2.54976e-11
3.37912e-11
2.60318e-11
1.38732e-11
3.92212e-12
-1.67899e-12
-3.48307e-12
-3.03603e-12
-1.78445e-12
-6.29972e-13
7.61687e-14
3.4295e-13
3.30378e-13
2.05833e-13
7.9849e-14
-8.89074e-16
-3.34551e-14
-3.42937e-14
-2.18779e-14
-8.70099e-15
-1.50219e-16
3.31788e-15
3.4346e-15
2.16837e-15
8.36515e-16
-9.15621e-18
-3.36168e-16
-3.32388e-16
-2.00665e-16
-7.07682e-17
7.20619e-18
3.42213e-17
3.08646e-17
1.72035e-17
5.0947e-18
-1.53685e-18
-3.40431e-18
-2.71287e-18
-1.34195e-18
-2.79581e-19
2.294e-19
3.21806e-19
2.21493e-19
9.19755e-20
6.04594e-21
-2.77353e-20
-2.82076e-20
-1.63715e-20
-5.12133e-21
1.1049e-21
2.8513e-21
2.24014e-21
1.05189e-21
1.74376e-22
-2.10583e-22
-2.53226e-22
-1.56696e-22
-5.389e-23
5.66284e-24
2.37384e-23
1.93767e-23
9.2047e-24
1.58888e-24
-1.72498e-24
-2.07173e-24
-1.24957e-24
-4.03372e-25
6.55496e-26
1.92836e-25
1.46823e-25
6.38457e-26
6.78003e-27
-1.52553e-26
-1.54345e-26
-8.29665e-27
-2.07648e-27
9.30215e-28
1.47215e-27
9.5371e-28
3.34753e-28
-2.37602e-29
-1.27774e-28
-1.00178e-28
-4.34376e-29
-4.57615e-30
1.03382e-29
8.01114e-30
)
;

boundaryField
{
    sides
    {
        type            zeroGradient;
    }
    empty
    {
        type            empty;
    }
}


// ************************************************************************* //
