/*--------------------------------*- C++ -*----------------------------------*\
| =========                 |                                                 |
| \\      /  F ield         | OpenFOAM: The Open Source CFD Toolbox           |
|  \\    /   O peration     | Version:  2312                                  |
|   \\  /    A nd           | Website:  www.openfoam.com                      |
|    \\/     M anipulation  |                                                 |
\*---------------------------------------------------------------------------*/
FoamFile
{
    version     2.0;
    format      ascii;
    arch        "LSB;label=32;scalar=64";
    class       volScalarField;
    location    "1.3";
    object      T;
}
// * * * * * * * * * * * * * * * * * * * * * * * * * * * * * * * * * * * * * //

dimensions      [0 0 0 1 0 0 0];

internalField   nonuniform List<scalar> 
1000
(
0
0
0
0
0
0
0
0
0
0
0
0
0
0
0
0
0
0
0
0
0
0
0
0
0
0
0
0
0
0
0
0
0
0
0
0
0
0
0
0
0
0
0
0
0
0
0
0
0
0
0
0
0
0
0
0
0
0
0
0
0
0
0
0
0
0
0
0
0
0
0
0
0
0
0
0
0
0
0
0
0
0
0
0
0
0
0
0
0
0
0
0
0
0
0
0
0
0
0
0
0
0
0
0
0
0
0
0
0
0
0
0
0
0
0
0
0
0
0
0
0
0
0
0
0
0
0
0
0
0
0
0
0
0
0
0
0
0
0
0
0
0
0
0
0
0
0
0
0
0
0
0
0
0
0
0
0
0
0
0
0
0
0
0
0
0
0
0
0
0
0
0
0
0
0
0
0
0
0
0
0
0
0
0
0
0
0
0
0
0
0
0
0
0
0
0
0
0
0
0
0
0
0
0
0
0
0
0
0
0
0
0
0
0
0
0
0
0
0
0
0
0
0
0
0
0
0
0
0
0
0
0
0
0
0
0
0
0
0
0
0
0
0
0
0
0
0
0
0
0
0
0
0
0
0
0
0
0
0
0
0
0
0
0
0
0
0
0
0
0
0
0
0
0
0
0
0
0
0
0
0
0
0
0
0
0
0
0
0
0
0
0
0
0
0
0
0
0
0
0
0
0
0
0
0
0
0
0
0
0
0
0
0
0
0
0
0
0
0
0
0
0
0
0
0
0
0
0
0
0
0
0
0
0
0
0
0
0
0
0
0
0
0
0
0
0
0
0
0
0
0
0
0
0
0
0
0
0
0
0
0
0
0
0
0
0
0
0
0
0
0
0
0
0
0
0
0
0
0
0
0
0
0
0
0
0
0
0
0
0
0
0
0
0
0
0
0
0
0
0
0
0
0
0
3.75003e-68
-2.51738e-52
1.51265e-44
-8.94136e-41
1.17662e-39
1.26459e-37
3.12399e-36
4.59945e-35
4.86986e-34
4.01937e-33
2.68557e-32
1.46511e-31
6.36228e-31
1.979e-30
2.22495e-30
-2.26718e-29
-2.14161e-28
-1.19863e-27
-5.35432e-27
-2.12104e-26
-7.97278e-26
-2.94105e-25
-1.05223e-24
-3.49297e-24
-1.01829e-23
-2.43964e-23
-4.22752e-23
-2.85272e-23
1.12858e-22
4.45038e-22
3.36664e-22
-3.6433e-21
-2.16349e-20
-7.18526e-20
-1.60797e-19
-2.00295e-19
1.87463e-19
1.91589e-18
6.23726e-18
1.29012e-17
1.4799e-17
-1.33573e-17
-1.37937e-16
-4.07377e-16
-5.16179e-16
1.32486e-15
3.88307e-15
-2.06979e-15
-1.26186e-14
3.05854e-15
3.26386e-14
-5.3286e-15
-7.937e-14
1.24334e-14
1.82722e-13
-2.2583e-14
-4.19532e-13
1.71526e-14
9.66788e-13
6.41938e-14
-2.16589e-12
-5.0564e-13
4.74484e-12
2.17983e-12
-9.97261e-12
-7.80252e-12
2.00465e-11
2.35795e-11
-3.4243e-11
-6.54791e-11
4.26884e-11
1.63786e-10
-1.31816e-11
-3.57108e-10
-1.75142e-10
6.959e-10
7.45752e-10
-9.4633e-10
-2.18652e-09
3.49543e-10
4.95132e-09
2.97555e-09
-7.91272e-09
-1.26545e-08
5.27308e-09
3.11527e-08
1.73561e-08
-4.85443e-08
-7.93583e-08
1.55965e-08
1.79478e-07
1.55891e-07
-1.84449e-07
-5.2298e-07
-2.3612e-07
7.71061e-07
1.38501e-06
2.19753e-07
-2.51011e-06
-3.60343e-06
4.66632e-08
7.23725e-06
9.5414e-06
6.48396e-08
-1.88138e-05
-2.70933e-05
-5.79746e-06
4.34613e-05
7.78587e-05
4.33014e-05
-7.54265e-05
-0.000208938
-0.000204
2.26635e-05
0.000430977
0.000712004
0.000507863
-0.000348189
-0.00162302
-0.00239583
-0.00175799
0.000791488
0.00485796
0.00849419
0.00856933
0.00357577
-0.00772898
-0.0236525
-0.03865
-0.043765
-0.0335941
-0.00198256
0.0554748
0.138857
0.243887
0.362853
0.486274
0.604794
0.710804
0.799433
0.868788
0.919562
0.954246
0.976237
0.989053
0.9958
0.998888
0.999928
1
1
1
1
1
1
1
1
1
1
1
1
1
1
1
1
1
1
1
1
1
1
1
1
1
1
1
1
1
1
1
1
1
1
1
1
1
1
1
1
1
1
1
1
1
1
1
0.999999
0.999999
1
1
1
1
0.999993
0.99999
1
1.00002
1.00003
1.00001
0.999956
0.999922
0.999956
1.00007
1.00021
1.00021
0.999979
0.99957
0.999289
0.999493
1.00035
1.00162
1.00239
1.00175
0.999205
0.995141
0.99151
0.991439
0.996438
1.00774
1.02366
1.03864
1.04374
1.03354
1.00189
0.944401
0.860992
0.755949
0.636984
0.513576
0.395079
0.289096
0.200494
0.131162
0.0804072
0.0457366
0.0237549
0.0109434
0.00419903
0.00111192
7.23172e-05
5.73296e-11
3.52818e-12
2.76364e-13
4.50641e-15
3.37468e-16
3.27684e-16
3.0536e-16
2.67177e-16
2.20626e-16
1.75002e-16
1.35998e-16
1.05069e-16
8.12615e-17
6.29684e-17
4.87807e-17
3.76838e-17
2.89786e-17
2.21646e-17
1.68586e-17
1.27534e-17
9.59779e-18
7.1868e-18
5.3551e-18
3.97081e-18
2.9299e-18
2.15108e-18
1.57123e-18
1.1417e-18
8.25162e-19
5.93132e-19
4.23974e-19
3.01342e-19
2.12948e-19
1.49606e-19
1.04486e-19
7.25414e-20
5.00626e-20
3.43426e-20
2.34175e-20
1.58722e-20
1.06938e-20
7.16185e-21
4.76798e-21
3.15552e-21
2.07612e-21
1.35797e-21
8.83098e-22
5.70981e-22
3.67069e-22
2.34643e-22
1.49148e-22
9.42744e-23
5.92593e-23
3.70444e-23
2.30307e-23
1.42405e-23
8.75774e-24
5.35701e-24
3.25935e-24
1.97255e-24
1.18749e-24
7.11121e-25
4.23628e-25
2.51051e-25
1.48008e-25
8.68098e-26
5.06546e-26
2.94066e-26
1.69847e-26
9.76038e-27
5.58059e-27
3.17473e-27
1.79703e-27
1.01212e-27
5.6722e-28
3.16313e-28
1.75525e-28
9.69226e-29
5.32579e-29
2.91223e-29
1.58473e-29
8.58195e-30
4.62512e-30
2.48071e-30
1.3242e-30
7.03498e-31
3.71976e-31
1.95757e-31
1.02537e-31
5.34577e-32
2.77408e-32
1.43289e-32
7.36718e-33
3.77046e-33
1.92088e-33
9.74158e-34
4.91801e-34
2.47166e-34
1.23663e-34
6.15952e-35
3.05437e-35
1.50791e-35
7.4116e-36
3.62698e-36
1.76718e-36
8.57297e-37
4.14098e-37
1.99161e-37
9.53779e-38
4.5482e-38
2.15968e-38
1.02119e-38
4.80837e-39
2.25463e-39
1.0528e-39
4.89574e-40
2.26726e-40
1.0457e-40
4.80327e-41
2.19739e-41
1.0012e-41
4.54349e-42
2.05363e-42
9.24538e-43
4.14579e-43
1.85173e-43
8.23843e-44
3.65103e-44
1.61176e-44
7.0877e-45
3.10484e-45
1.35491e-45
5.89017e-46
2.55093e-46
1.1006e-46
4.73074e-47
2.02585e-47
8.64308e-48
3.67386e-48
1.55588e-48
6.56505e-49
2.76004e-49
1.15615e-49
4.82552e-50
2.00684e-50
8.31619e-51
3.43391e-51
1.41291e-51
5.79301e-52
2.36684e-52
9.6364e-53
3.90975e-53
1.5808e-53
6.36956e-54
2.5577e-54
1.02354e-54
4.0821e-55
1.62252e-55
6.4274e-56
2.53759e-56
9.98523e-57
3.91606e-57
1.53075e-57
5.96386e-58
2.31593e-58
8.96409e-59
3.4584e-59
1.32996e-59
5.09801e-60
1.94792e-60
7.41914e-61
2.8168e-61
1.06606e-61
4.02198e-62
1.51264e-62
5.67118e-63
2.11963e-63
7.89772e-64
2.93362e-64
1.08636e-64
4.01063e-65
1.47615e-65
5.41667e-66
1.98163e-66
7.22782e-67
2.6284e-67
9.52977e-68
3.44495e-68
1.24165e-68
4.46211e-69
1.59884e-69
5.71221e-70
2.03488e-70
7.228e-71
2.56003e-71
9.04116e-72
3.18392e-72
1.11805e-72
3.91499e-73
1.36702e-73
4.75986e-74
1.65271e-74
5.72254e-75
1.97594e-75
6.80386e-76
2.33636e-76
8.00077e-77
2.73235e-77
9.30586e-78
3.16081e-78
1.0707e-78
3.61714e-79
1.21871e-79
4.09517e-80
1.37243e-80
4.58729e-81
1.52924e-81
5.08456e-82
1.68614e-82
5.57697e-83
1.83982e-83
6.05377e-84
1.98681e-84
6.50385e-85
2.1236e-85
6.91617e-86
2.24676e-86
7.28024e-87
2.3531e-87
7.58654e-88
2.43983e-88
7.82693e-89
2.50463e-89
7.99506e-90
2.54582e-90
8.0866e-91
2.56236e-91
8.09945e-92
2.55396e-92
8.03382e-93
2.52105e-93
7.89216e-94
2.46473e-94
7.67904e-95
2.38677e-95
7.40091e-96
2.28946e-96
7.06578e-97
2.17555e-97
6.68285e-98
2.04806e-98
6.26207e-99
1.91024e-99
5.81376e-100
1.76534e-100
5.3482e-101
1.61658e-101
4.87526e-102
1.46695e-102
4.40407e-103
1.31922e-103
3.9428e-104
1.17577e-104
3.49845e-105
1.03864e-105
3.07676e-106
9.09422e-107
2.68216e-107
7.8932e-108
2.31779e-108
6.79129e-109
1.98559e-109
5.79281e-110
1.68638e-110
4.89879e-111
1.42002e-111
4.10748e-112
1.18559e-112
3.41488e-113
9.8152e-114
2.81521e-114
8.05771e-115
2.30148e-115
6.5599e-116
1.86589e-116
5.29637e-117
1.50029e-117
4.2411e-118
1.19645e-118
3.36838e-119
9.46381e-120
2.65357e-120
7.42533e-121
2.07361e-121
5.77916e-122
1.60743e-122
4.46206e-123
1.23615e-123
3.41782e-124
9.4312e-125
2.59734e-125
7.13899e-126
1.95837e-126
5.36173e-127
1.46511e-127
3.99569e-128
1.08761e-128
2.95473e-129
8.01175e-130
2.16823e-130
5.8567e-131
1.57897e-131
4.24883e-132
1.14115e-132
3.05913e-133
8.1853e-134
2.18604e-134
5.82731e-135
1.55049e-135
4.11777e-136
1.09157e-136
2.88827e-137
7.62824e-138
2.01101e-138
5.29184e-139
1.38998e-139
3.64434e-140
9.53765e-141
2.4916e-141
6.49728e-142
1.69123e-142
4.39438e-143
1.13976e-143
2.95092e-144
7.62655e-145
1.96757e-145
5.06714e-146
1.30266e-146
3.34301e-147
8.56411e-148
2.19012e-148
5.59111e-149
1.42487e-149
3.62491e-150
9.20601e-151
2.33398e-151
5.90715e-152
1.4925e-152
)
;

boundaryField
{
    sides
    {
        type            zeroGradient;
    }
    empty
    {
        type            empty;
    }
}


// ************************************************************************* //
