/*--------------------------------*- C++ -*----------------------------------*\
| =========                 |                                                 |
| \\      /  F ield         | OpenFOAM: The Open Source CFD Toolbox           |
|  \\    /   O peration     | Version:  2312                                  |
|   \\  /    A nd           | Website:  www.openfoam.com                      |
|    \\/     M anipulation  |                                                 |
\*---------------------------------------------------------------------------*/
FoamFile
{
    version     2.0;
    format      ascii;
    arch        "LSB;label=32;scalar=64";
    class       volScalarField;
    location    "1.1";
    object      T;
}
// * * * * * * * * * * * * * * * * * * * * * * * * * * * * * * * * * * * * * //

dimensions      [0 0 0 1 0 0 0];

internalField   nonuniform List<scalar> 
1000
(
2.58308e-21
2.64029e-21
2.79973e-21
3.06732e-21
3.453e-21
3.97103e-21
4.64058e-21
5.48633e-21
6.53936e-21
7.83827e-21
9.43051e-21
1.1374e-20
1.37393e-20
1.66118e-20
2.00948e-20
2.43132e-20
2.94175e-20
3.5589e-20
4.30463e-20
5.20519e-20
6.2922e-20
7.60362e-20
9.18507e-20
1.10913e-19
1.33881e-19
1.61542e-19
1.94843e-19
2.34916e-19
2.83119e-19
3.41078e-19
4.10739e-19
4.9443e-19
5.94937e-19
7.1559e-19
8.60367e-19
1.03402e-18
1.24223e-18
1.49177e-18
1.79072e-18
2.14871e-18
2.57725e-18
3.09001e-18
3.7033e-18
4.43654e-18
5.31282e-18
6.35962e-18
7.60963e-18
9.10167e-18
1.08819e-17
1.30051e-17
1.55362e-17
1.85526e-17
2.21457e-17
2.6424e-17
3.1516e-17
3.75743e-17
4.47789e-17
5.33436e-17
6.35207e-17
7.56088e-17
8.9961e-17
1.06994e-16
1.27201e-16
1.51163e-16
1.79567e-16
2.1322e-16
2.53079e-16
3.00267e-16
3.56109e-16
4.22164e-16
5.0027e-16
5.92585e-16
7.0165e-16
8.30451e-16
9.82496e-16
1.16191e-15
1.37352e-15
1.62301e-15
1.91704e-15
2.26342e-15
2.67129e-15
3.15137e-15
3.71623e-15
4.38053e-15
5.16148e-15
6.07917e-15
7.1571e-15
8.42272e-15
9.9081e-15
1.16507e-14
1.36941e-14
1.60893e-14
1.88958e-14
2.21826e-14
2.60306e-14
3.05336e-14
3.58008e-14
4.19594e-14
4.91573e-14
5.75663e-14
6.7386e-14
7.88485e-14
9.22228e-14
1.07821e-13
1.26006e-13
1.47198e-13
1.71883e-13
2.00624e-13
2.34076e-13
2.72992e-13
3.18248e-13
3.70852e-13
4.31974e-13
5.02962e-13
5.85373e-13
6.81007e-13
7.91938e-13
9.20558e-13
1.06963e-12
1.24232e-12
1.4423e-12
1.67377e-12
1.94159e-12
2.25133e-12
2.60941e-12
3.02318e-12
3.50112e-12
4.05293e-12
4.68977e-12
5.42443e-12
6.27156e-12
7.24799e-12
8.37295e-12
9.66851e-12
1.11599e-11
1.2876e-11
1.48498e-11
1.7119e-11
1.97268e-11
2.27224e-11
2.6162e-11
3.01098e-11
3.46388e-11
3.98324e-11
4.57857e-11
5.26068e-11
6.0419e-11
6.93623e-11
7.95962e-11
9.13019e-11
1.04685e-10
1.19981e-10
1.37453e-10
1.57405e-10
1.80177e-10
2.06157e-10
2.35784e-10
2.69557e-10
3.08039e-10
3.51867e-10
4.01763e-10
4.58542e-10
5.23126e-10
5.96557e-10
6.8001e-10
7.74813e-10
8.82463e-10
1.00465e-09
1.14327e-09
1.30048e-09
1.47868e-09
1.68059e-09
1.90928e-09
2.16817e-09
2.46114e-09
2.79251e-09
3.16718e-09
3.5906e-09
4.06892e-09
4.60903e-09
5.21863e-09
5.90637e-09
6.68194e-09
7.55617e-09
8.54119e-09
9.65055e-09
1.08994e-08
1.23047e-08
1.38853e-08
1.56624e-08
1.76595e-08
1.99028e-08
2.24217e-08
2.52487e-08
2.84202e-08
3.19765e-08
3.59627e-08
4.04288e-08
4.54303e-08
5.10291e-08
5.72936e-08
6.43001e-08
7.2133e-08
8.08859e-08
9.06627e-08
1.01578e-07
1.1376e-07
1.27349e-07
1.42501e-07
1.59388e-07
1.78202e-07
1.99152e-07
2.22471e-07
2.48415e-07
2.77268e-07
3.09341e-07
3.44978e-07
3.84559e-07
4.285e-07
4.77259e-07
5.31342e-07
5.91304e-07
6.57755e-07
7.31364e-07
8.12866e-07
9.03069e-07
1.00286e-06
1.1132e-06
1.23517e-06
1.36991e-06
1.51872e-06
1.68297e-06
1.8642e-06
2.06407e-06
2.28441e-06
2.5272e-06
2.79461e-06
3.08901e-06
3.41297e-06
3.76932e-06
4.16111e-06
4.59169e-06
5.06468e-06
5.58403e-06
6.15403e-06
6.77934e-06
7.46504e-06
8.21661e-06
9.04003e-06
9.94176e-06
1.09288e-05
1.20088e-05
1.31899e-05
1.44811e-05
1.58919e-05
1.74329e-05
1.91151e-05
2.09508e-05
2.29532e-05
2.51362e-05
2.75153e-05
3.01069e-05
3.29286e-05
3.59995e-05
3.93403e-05
4.29729e-05
4.69211e-05
5.12105e-05
5.58684e-05
6.09242e-05
6.64096e-05
7.23583e-05
7.88067e-05
8.57935e-05
9.33604e-05
0.000101552
0.000110415
0.000120002
0.000130366
0.000141566
0.000153663
0.000166724
0.000180818
0.000196022
0.000212415
0.000230081
0.000249113
0.000269605
0.00029166
0.000315388
0.000340902
0.000368326
0.000397789
0.000429428
0.00046339
0.000499829
0.000538906
0.000580796
0.00062568
0.00067375
0.00072521
0.000780274
0.000839168
0.000902131
0.000969412
0.00104128
0.001118
0.00119988
0.00128722
0.00138034
0.00147958
0.0015853
0.00169786
0.00181766
0.0019451
0.00208062
0.00222465
0.00237767
0.00254015
0.00271262
0.0028956
0.00308964
0.00329532
0.00351324
0.00374403
0.00398833
0.00424681
0.00452019
0.00480918
0.00511454
0.00543706
0.00577753
0.00613681
0.00651575
0.00691526
0.00733625
0.00777968
0.00824655
0.00873786
0.00925465
0.00979802
0.0103691
0.0109689
0.0115987
0.0122597
0.0129531
0.0136802
0.0144423
0.0152406
0.0160765
0.0169514
0.0178667
0.0188239
0.0198243
0.0208695
0.021961
0.0231003
0.0242889
0.0255285
0.0268206
0.0281668
0.0295688
0.0310282
0.0325466
0.0341258
0.0357674
0.0374731
0.0392446
0.0410836
0.0429917
0.0449707
0.0470223
0.0491482
0.0513499
0.0536293
0.0559879
0.0584273
0.0609493
0.0635553
0.0662469
0.0690257
0.0718931
0.0748507
0.0778997
0.0810417
0.0842779
0.0876096
0.091038
0.0945643
0.0981896
0.101915
0.105741
0.109669
0.1137
0.117835
0.122073
0.126416
0.130865
0.135419
0.140078
0.144844
0.149716
0.154694
0.159778
0.164967
0.170262
0.175663
0.181167
0.186775
0.192486
0.198298
0.204212
0.210224
0.216336
0.222543
0.228846
0.235243
0.241731
0.248308
0.254973
0.261722
0.268555
0.275467
0.282457
0.289522
0.296658
0.303862
0.311133
0.318465
0.325855
0.333301
0.340798
0.348343
0.355931
0.363558
0.371221
0.378915
0.386635
0.394378
0.402139
0.409912
0.417694
0.42548
0.433264
0.441042
0.448808
0.456558
0.464287
0.471989
0.479659
0.487292
0.494883
0.502425
0.509915
0.517346
0.524714
0.532012
0.539236
0.546381
0.55344
0.560409
0.567282
0.574054
0.58072
0.587275
0.593714
0.600032
0.606223
0.612283
0.618208
0.623992
0.62963
0.635119
0.640454
0.64563
0.650644
0.655491
0.660168
0.664669
0.668993
0.673135
0.677092
0.68086
0.684436
0.687819
0.691003
0.693988
0.69677
0.699347
0.701717
0.703878
0.705828
0.707566
0.70909
0.710398
0.71149
0.712365
0.713021
0.71346
0.713679
0.713679
0.71346
0.713021
0.712365
0.71149
0.710398
0.70909
0.707566
0.705828
0.703878
0.701717
0.699347
0.69677
0.693988
0.691003
0.687819
0.684436
0.68086
0.677092
0.673135
0.668993
0.664669
0.660168
0.655491
0.650644
0.64563
0.640454
0.635119
0.62963
0.623992
0.618208
0.612283
0.606223
0.600032
0.593714
0.587275
0.58072
0.574054
0.567282
0.560409
0.55344
0.546381
0.539236
0.532012
0.524714
0.517346
0.509915
0.502425
0.494883
0.487292
0.479659
0.471989
0.464287
0.456558
0.448808
0.441042
0.433264
0.42548
0.417694
0.409912
0.402139
0.394378
0.386635
0.378915
0.371221
0.363558
0.355931
0.348343
0.340798
0.333301
0.325855
0.318465
0.311133
0.303862
0.296658
0.289522
0.282457
0.275467
0.268555
0.261722
0.254973
0.248308
0.241731
0.235243
0.228846
0.222543
0.216336
0.210224
0.204212
0.198298
0.192486
0.186775
0.181167
0.175663
0.170262
0.164967
0.159778
0.154694
0.149716
0.144844
0.140078
0.135419
0.130865
0.126416
0.122073
0.117835
0.1137
0.109669
0.105741
0.101915
0.0981896
0.0945643
0.091038
0.0876096
0.0842779
0.0810417
0.0778997
0.0748507
0.0718931
0.0690257
0.0662469
0.0635553
0.0609493
0.0584273
0.0559879
0.0536293
0.0513499
0.0491482
0.0470223
0.0449707
0.0429917
0.0410836
0.0392446
0.0374731
0.0357674
0.0341258
0.0325466
0.0310282
0.0295688
0.0281668
0.0268206
0.0255285
0.0242889
0.0231003
0.021961
0.0208695
0.0198243
0.0188239
0.0178667
0.0169514
0.0160765
0.0152406
0.0144423
0.0136802
0.0129531
0.0122597
0.0115987
0.0109689
0.0103691
0.00979802
0.00925465
0.00873786
0.00824655
0.00777968
0.00733625
0.00691526
0.00651575
0.00613681
0.00577753
0.00543706
0.00511454
0.00480918
0.00452019
0.00424681
0.00398833
0.00374403
0.00351324
0.00329532
0.00308964
0.0028956
0.00271262
0.00254015
0.00237767
0.00222465
0.00208062
0.0019451
0.00181766
0.00169786
0.0015853
0.00147958
0.00138034
0.00128722
0.00119988
0.001118
0.00104128
0.000969412
0.000902131
0.000839168
0.000780274
0.00072521
0.00067375
0.00062568
0.000580796
0.000538906
0.000499829
0.00046339
0.000429428
0.000397789
0.000368326
0.000340902
0.000315388
0.00029166
0.000269605
0.000249113
0.000230081
0.000212415
0.000196022
0.000180818
0.000166724
0.000153663
0.000141566
0.000130366
0.000120002
0.000110415
0.000101552
9.33604e-05
8.57935e-05
7.88067e-05
7.23583e-05
6.64096e-05
6.09242e-05
5.58684e-05
5.12105e-05
4.69211e-05
4.29729e-05
3.93403e-05
3.59995e-05
3.29286e-05
3.01069e-05
2.75153e-05
2.51362e-05
2.29532e-05
2.09508e-05
1.91151e-05
1.74329e-05
1.58919e-05
1.44811e-05
1.31899e-05
1.20088e-05
1.09288e-05
9.94176e-06
9.04003e-06
8.21661e-06
7.46504e-06
6.77934e-06
6.15403e-06
5.58403e-06
5.06468e-06
4.59169e-06
4.16111e-06
3.76932e-06
3.41297e-06
3.08901e-06
2.79461e-06
2.5272e-06
2.28441e-06
2.06407e-06
1.8642e-06
1.68297e-06
1.51872e-06
1.36991e-06
1.23517e-06
1.1132e-06
1.00286e-06
9.03069e-07
8.12866e-07
7.31364e-07
6.57755e-07
5.91304e-07
5.31342e-07
4.77259e-07
4.285e-07
3.84559e-07
3.44978e-07
3.09341e-07
2.77268e-07
2.48415e-07
2.22471e-07
1.99152e-07
1.78202e-07
1.59388e-07
1.42501e-07
1.27349e-07
1.1376e-07
1.01578e-07
9.06627e-08
8.08859e-08
7.2133e-08
6.43001e-08
5.72936e-08
5.10291e-08
4.54303e-08
4.04288e-08
3.59627e-08
3.19765e-08
2.84202e-08
2.52487e-08
2.24217e-08
1.99028e-08
1.76595e-08
1.56624e-08
1.38853e-08
1.23047e-08
1.08994e-08
9.65055e-09
8.54119e-09
7.55617e-09
6.68194e-09
5.90637e-09
5.21863e-09
4.60903e-09
4.06892e-09
3.5906e-09
3.16718e-09
2.79251e-09
2.46114e-09
2.16817e-09
1.90928e-09
1.68059e-09
1.47868e-09
1.30048e-09
1.14327e-09
1.00465e-09
8.82463e-10
7.74813e-10
6.8001e-10
5.96557e-10
5.23126e-10
4.58542e-10
4.01763e-10
3.51867e-10
3.08039e-10
2.69557e-10
2.35784e-10
2.06157e-10
1.80177e-10
1.57405e-10
1.37453e-10
1.19981e-10
1.04685e-10
9.13019e-11
7.95962e-11
6.93623e-11
6.0419e-11
5.26068e-11
4.57857e-11
3.98324e-11
3.46388e-11
3.01098e-11
2.6162e-11
2.27224e-11
1.97268e-11
1.7119e-11
1.48498e-11
1.2876e-11
1.11599e-11
9.66851e-12
8.37295e-12
7.24799e-12
6.27156e-12
5.42443e-12
4.68977e-12
4.05293e-12
3.50112e-12
3.02318e-12
2.60941e-12
2.25133e-12
1.94159e-12
1.67377e-12
1.4423e-12
1.24232e-12
1.06963e-12
9.20558e-13
7.91938e-13
6.81007e-13
5.85373e-13
5.02962e-13
4.31974e-13
3.70852e-13
3.18248e-13
2.72992e-13
2.34076e-13
2.00624e-13
1.71883e-13
1.47198e-13
1.26006e-13
1.07821e-13
9.22228e-14
7.88485e-14
6.7386e-14
5.75663e-14
4.91573e-14
4.19594e-14
3.58008e-14
3.05336e-14
2.60306e-14
2.21826e-14
1.88958e-14
1.60893e-14
1.36941e-14
1.16507e-14
9.9081e-15
8.42272e-15
7.1571e-15
6.07917e-15
5.16148e-15
4.38053e-15
3.71623e-15
3.15137e-15
2.67129e-15
2.26342e-15
1.91704e-15
1.62301e-15
1.37352e-15
1.16191e-15
9.82496e-16
8.30451e-16
7.0165e-16
5.92585e-16
5.0027e-16
4.22164e-16
3.56109e-16
3.00267e-16
2.53079e-16
2.1322e-16
1.79567e-16
1.51163e-16
1.27201e-16
1.06994e-16
8.9961e-17
7.56088e-17
6.35207e-17
5.33436e-17
4.47789e-17
3.75743e-17
3.1516e-17
2.6424e-17
2.21457e-17
1.85526e-17
1.55362e-17
1.30051e-17
1.08819e-17
9.10167e-18
7.60963e-18
6.35962e-18
5.31282e-18
4.43654e-18
3.7033e-18
3.09001e-18
2.57725e-18
2.14871e-18
1.79072e-18
1.49177e-18
1.24223e-18
1.03402e-18
8.60367e-19
7.1559e-19
5.94937e-19
4.9443e-19
4.10739e-19
3.41078e-19
2.83119e-19
2.34916e-19
1.94843e-19
1.61542e-19
1.33881e-19
1.10913e-19
9.18507e-20
7.60362e-20
6.2922e-20
5.20519e-20
4.30463e-20
3.5589e-20
2.94175e-20
2.43132e-20
2.00948e-20
1.66118e-20
1.37393e-20
1.1374e-20
9.43051e-21
7.83827e-21
6.53936e-21
5.48633e-21
4.64058e-21
3.97103e-21
3.453e-21
3.06732e-21
2.79973e-21
2.64029e-21
2.58308e-21
)
;

boundaryField
{
    sides
    {
        type            zeroGradient;
    }
    empty
    {
        type            empty;
    }
}


// ************************************************************************* //
