/*--------------------------------*- C++ -*----------------------------------*\
| =========                 |                                                 |
| \\      /  F ield         | OpenFOAM: The Open Source CFD Toolbox           |
|  \\    /   O peration     | Version:  2312                                  |
|   \\  /    A nd           | Website:  www.openfoam.com                      |
|    \\/     M anipulation  |                                                 |
\*---------------------------------------------------------------------------*/
FoamFile
{
    version     2.0;
    format      ascii;
    arch        "LSB;label=32;scalar=64";
    class       volScalarField;
    location    "3.8";
    object      T;
}
// * * * * * * * * * * * * * * * * * * * * * * * * * * * * * * * * * * * * * //

dimensions      [0 0 0 1 0 0 0];

internalField   nonuniform List<scalar> 
1000
(
1.5421e-299
-4.23832e-299
3.34582e-298
-2.36057e-297
1.67114e-296
-1.1788e-295
8.28856e-295
-5.80915e-294
4.05824e-293
-2.82585e-292
1.96128e-291
-1.35678e-290
9.35507e-290
-6.42912e-289
4.40368e-288
-3.00632e-287
2.04553e-286
-1.38714e-285
9.37504e-285
-6.31481e-284
4.23911e-283
-2.83604e-282
1.89089e-281
-1.25641e-280
8.31957e-280
-5.48998e-279
3.61022e-278
-2.36583e-277
1.54495e-276
-1.00536e-275
6.51928e-275
-4.21249e-274
2.71228e-273
-1.74013e-272
1.11242e-271
-7.08594e-271
4.49733e-270
-2.84405e-269
1.79199e-268
-1.12498e-267
7.0365e-267
-4.38496e-266
2.72247e-265
-1.68401e-264
1.03776e-263
-6.37119e-263
3.89675e-262
-2.37431e-261
1.44117e-260
-8.7143e-260
5.24901e-259
-3.14952e-258
1.88245e-257
-1.12075e-256
6.64644e-256
-3.92607e-255
2.30998e-254
-1.35372e-253
7.9015e-253
-4.59352e-252
2.65966e-251
-1.5337e-250
8.8081e-250
-5.03779e-249
2.86949e-248
-1.62767e-247
9.19427e-247
-5.17183e-246
2.89694e-245
-1.61581e-244
8.97405e-244
-4.96275e-243
2.73263e-242
-1.49815e-241
8.17768e-241
-4.44424e-240
2.40461e-239
-1.29527e-238
6.94595e-238
-3.70806e-237
1.97058e-236
-1.04246e-235
5.48949e-235
-2.87738e-234
1.50121e-233
-7.79567e-233
4.02918e-232
-2.07261e-231
1.06107e-230
-5.406e-230
2.74097e-229
-1.38296e-228
6.94353e-228
-3.46894e-227
1.72442e-226
-8.52915e-226
4.19725e-225
-2.05496e-224
1.00093e-223
-4.85006e-223
2.33784e-222
-1.12096e-221
5.34628e-221
-2.53617e-220
1.19661e-219
-5.615e-219
2.6203e-218
-1.21599e-217
5.6114e-217
-2.57481e-216
1.17471e-215
-5.32843e-215
2.40287e-214
-1.07719e-213
4.80026e-213
-2.12625e-212
9.36084e-212
-4.09577e-211
1.78092e-210
-7.69509e-210
3.30375e-209
-1.40926e-208
5.97217e-208
-2.51416e-207
1.05132e-206
-4.36634e-206
1.80095e-205
-7.37643e-205
2.99988e-204
-1.21124e-203
4.85483e-203
-1.93147e-202
7.62636e-202
-2.98818e-201
1.16171e-200
-4.48052e-200
1.71409e-199
-6.50351e-199
2.44678e-198
-9.12642e-198
3.37429e-197
-1.23638e-196
4.48869e-196
-1.6143e-195
5.74964e-195
-2.02755e-194
7.0771e-194
-2.44431e-193
8.35076e-193
-2.82102e-192
9.41929e-192
-3.10718e-191
1.01212e-190
-3.25366e-190
1.03159e-189
-3.22348e-189
9.91875e-189
-3.00248e-188
8.93083e-188
-2.60668e-187
7.45299e-187
-2.08302e-186
5.67526e-186
-1.50184e-185
3.84073e-185
-9.42175e-185
2.1913e-184
-4.73421e-184
9.11089e-184
-1.39334e-183
8.5924e-184
5.03616e-183
-3.06721e-182
1.17749e-181
-3.74492e-181
1.05042e-180
-2.63535e-180
5.83321e-180
-1.07607e-179
1.32432e-179
7.62402e-180
-1.24153e-178
5.41876e-178
-1.75516e-177
4.73361e-177
-1.07531e-176
1.93404e-176
-1.97517e-176
-3.50765e-176
2.92658e-175
-1.12375e-174
3.25982e-174
-7.60276e-174
1.34296e-173
-1.14557e-173
-3.57556e-173
2.3633e-172
-8.30542e-172
2.18378e-171
-4.34552e-171
5.12675e-171
5.51899e-171
-5.76159e-170
2.17354e-169
-5.77883e-169
1.11181e-168
-1.08929e-168
-2.47279e-168
1.76727e-167
-5.98153e-167
1.41522e-166
-2.1675e-166
7.84297e-168
1.35892e-165
-5.75482e-165
1.53453e-164
-2.70213e-164
1.3822e-164
1.15661e-163
-5.63545e-163
1.56799e-162
-2.79645e-162
1.35998e-162
1.22951e-161
-5.80814e-161
1.54468e-160
-2.47301e-160
2.58811e-162
1.55523e-159
-6.13314e-159
1.41882e-158
-1.65933e-158
-2.50783e-158
2.01402e-157
-6.16621e-157
1.09401e-156
-2.95364e-157
-5.74465e-156
2.35392e-155
-5.2478e-155
4.9009e-155
1.45559e-154
-8.45384e-154
2.20973e-153
-2.84244e-153
-3.37384e-153
2.99458e-152
-8.73901e-152
1.28797e-151
8.03866e-152
-1.08461e-150
3.35159e-150
-5.13005e-150
-2.6744e-150
4.1008e-149
-1.26202e-148
1.84396e-148
1.412e-148
-1.61731e-147
4.64868e-147
-5.85312e-147
-8.72645e-147
6.51391e-146
-1.64289e-145
1.4817e-145
5.12689e-145
-2.59e-144
5.35322e-144
-1.66735e-144
-2.71406e-143
9.75456e-143
-1.47884e-142
-1.19869e-142
1.27521e-141
-3.29516e-141
2.62719e-141
1.16955e-140
-5.21101e-140
9.02687e-140
3.66893e-140
-6.54491e-139
1.76471e-138
-1.39616e-138
-6.38788e-138
2.74052e-137
-4.30514e-137
-3.68073e-137
3.64792e-136
-8.43516e-136
2.71082e-136
4.23754e-135
-1.37429e-134
1.39547e-134
4.20253e-134
-2.00856e-133
3.12722e-133
3.18639e-133
-2.72682e-132
5.60403e-132
7.84691e-133
-3.51203e-131
8.99982e-131
-3.46043e-131
-4.36127e-130
1.35576e-129
-1.00697e-129
-5.30351e-129
1.96372e-128
-1.96297e-128
-6.42754e-128
2.77789e-127
-3.27655e-127
-7.9264e-127
3.87832e-126
-5.00407e-126
-1.01674e-125
5.37975e-125
-7.1707e-125
-1.37985e-124
7.43826e-124
-9.71812e-124
-1.98985e-123
1.02498e-122
-1.2407e-122
-3.01702e-122
1.40285e-121
-1.46514e-121
-4.71399e-121
1.89433e-120
-1.52652e-120
-7.42698e-120
2.49807e-119
-1.21192e-119
-1.15776e-118
3.16943e-118
-1.76442e-119
-1.75785e-117
3.7805e-117
2.08058e-117
-2.56288e-116
4.0664e-116
6.18891e-116
-3.53276e-115
3.56994e-115
1.27683e-114
-4.50725e-114
1.61847e-114
2.2095e-113
-5.13132e-113
-2.60206e-113
3.35053e-112
-4.79575e-112
-9.78047e-112
4.45613e-111
-2.65819e-111
-1.9927e-110
5.02368e-110
2.15238e-110
-3.15258e-109
4.27653e-109
1.00378e-108
-4.06229e-108
1.32178e-108
2.01144e-107
-4.04844e-107
-4.40342e-107
2.92986e-106
-2.28957e-106
-1.2371e-105
3.19282e-105
1.77789e-105
-2.01166e-104
2.09611e-104
7.76792e-104
-2.2947e-103
-8.26308e-104
1.36238e-102
-1.51773e-102
-5.19204e-102
1.55043e-101
6.36061e-102
-9.21798e-101
9.13199e-101
3.71917e-100
-9.84005e-100
-6.99199e-100
6.16999e-99
-4.17056e-99
-2.76441e-98
5.67624e-98
7.71398e-98
-3.95685e-97
6.57515e-98
2.02066e-96
-2.71145e-96
-7.56331e-96
2.29329e-95
1.41958e-95
-1.36592e-94
7.41275e-95
6.38699e-94
-1.06518e-93
-2.24039e-93
7.88055e-93
3.7604e-93
-4.49293e-92
2.43505e-92
2.10798e-91
-3.26478e-91
-7.92224e-91
2.42124e-90
1.93115e-90
-1.42528e-89
2.3826e-90
7.16333e-89
-7.22442e-89
-3.09984e-88
6.21637e-88
1.1032e-87
-4.04654e-87
-2.59052e-87
2.26539e-86
-3.21273e-87
-1.13474e-85
9.53249e-86
5.13549e-85
-8.26375e-85
-2.07474e-84
5.50908e-84
7.11893e-84
-3.2183e-83
-1.71378e-83
1.72336e-82
-9.21003e-84
-8.63238e-82
4.98645e-82
4.08398e-81
-4.51521e-81
-1.83115e-80
3.10555e-80
7.76648e-80
-1.88482e-79
-3.08875e-79
1.06187e-78
1.12746e-78
-5.68837e-78
-3.57953e-78
2.93785e-77
8.2222e-78
-1.47615e-76
2.52929e-78
7.26345e-76
-2.0206e-76
-3.5181e-75
1.80142e-75
1.68464e-74
-1.21749e-74
-8.00533e-74
7.29182e-74
3.78795e-73
-4.07136e-73
-1.7902e-72
2.16806e-72
8.47273e-72
-1.1143e-71
-4.02443e-71
5.56368e-71
1.92139e-70
-2.70775e-70
-9.22813e-70
1.28586e-69
4.45871e-69
-5.95219e-69
-2.16553e-68
2.67686e-68
1.05565e-67
-1.16206e-67
-5.154e-67
4.81254e-67
2.51345e-66
-1.85906e-66
-1.22055e-65
6.37336e-66
5.88147e-65
-1.66609e-65
-2.80135e-64
6.29819e-66
1.31298e-63
3.466e-64
-6.02317e-63
-3.52114e-63
2.68593e-62
2.56648e-62
-1.15328e-61
-1.62294e-61
4.699e-61
9.40439e-61
-1.77063e-60
-5.10231e-60
5.83808e-60
2.61411e-59
-1.41839e-59
-1.26656e-58
1.19419e-61
5.77858e-58
3.1177e-58
-2.45483e-57
-2.81531e-57
9.48213e-57
1.84309e-56
-3.15243e-56
-1.03006e-55
7.56575e-56
5.1317e-55
6.01539e-57
-2.29667e-54
-1.6422e-54
9.08496e-54
1.39847e-53
-3.00172e-53
-8.50761e-53
6.71865e-53
4.30326e-52
4.96181e-53
-1.86063e-51
-1.77365e-51
6.68586e-51
1.35805e-50
-1.74011e-50
-7.50672e-50
7.90401e-51
3.35129e-49
2.79869e-49
-1.19203e-48
-2.36882e-48
2.84525e-48
1.30917e-47
9.32609e-49
-5.55382e-47
-6.17625e-47
1.7372e-46
4.50795e-46
-2.56146e-46
-2.20958e-45
-1.36352e-45
7.88273e-45
1.47962e-44
-1.63866e-44
-8.19056e-44
-2.76419e-44
3.12899e-43
4.9612e-43
-7.08212e-43
-2.96401e-42
-7.52722e-43
1.14523e-41
1.78587e-41
-2.4568e-41
-1.06616e-40
-3.9457e-41
3.8926e-40
6.91256e-40
-6.61119e-40
-3.76634e-39
-2.54737e-39
1.18742e-38
2.73944e-38
-9.10753e-39
-1.25158e-37
-1.4684e-37
2.91334e-37
1.03278e-36
3.81172e-37
-3.5956e-36
-7.07806e-36
3.48173e-36
3.39207e-35
3.97206e-35
-7.24039e-35
-2.75377e-34
-1.5873e-34
8.35827e-34
2.0121e-33
4.1438e-35
-7.88875e-33
-1.35351e-32
7.94027e-33
6.68786e-32
8.50172e-32
-1.12893e-31
-5.31238e-31
-5.04934e-31
1.16058e-30
4.05554e-30
2.88886e-30
-1.03679e-29
-3.02936e-29
-1.65251e-29
8.52493e-29
2.2433e-28
1.01275e-28
-6.60844e-28
-1.66093e-27
-7.22309e-28
4.87229e-27
1.23346e-26
6.13407e-27
-3.40969e-26
-9.16304e-26
-5.81383e-26
2.23333e-25
6.75092e-25
5.66221e-25
-1.32274e-24
-4.86294e-24
-5.37493e-24
6.47914e-24
3.35492e-23
4.83773e-23
-1.78443e-23
-2.14927e-22
-4.0569e-22
-1.15152e-22
1.21023e-21
3.11282e-21
2.63261e-21
-5.2157e-21
-2.12456e-20
-2.99083e-20
6.84886e-21
1.21841e-19
2.58787e-19
1.74982e-19
-4.98702e-19
-1.79158e-18
-2.51289e-18
2.41886e-19
9.31481e-18
2.16588e-17
2.04087e-17
-2.47904e-17
-1.3095e-16
-2.38237e-16
-1.43904e-16
4.52038e-16
1.62142e-15
2.5564e-15
1.00698e-15
-6.02961e-15
-1.88009e-14
-2.82074e-14
-1.03093e-14
6.68171e-14
2.08484e-13
3.26586e-13
1.7592e-13
-6.03194e-13
-2.17901e-12
-3.86523e-12
-3.32499e-12
3.50194e-12
2.019e-11
4.37811e-11
5.53612e-11
1.29488e-11
-1.39668e-10
-4.28365e-10
-7.54564e-10
-7.70393e-10
1.88204e-10
2.9255e-09
7.715e-09
1.29593e-08
1.33925e-08
-1.13483e-09
-4.40357e-08
-1.24147e-07
-2.28333e-07
-2.94159e-07
-1.8013e-07
3.45053e-07
1.55422e-06
3.59756e-06
6.16372e-06
7.94092e-06
5.94683e-06
-5.02607e-06
-3.23332e-05
-8.39086e-05
-0.000163991
-0.000264672
-0.000351802
-0.000344171
-8.58854e-05
0.000686635
0.00237954
0.00557258
0.0110387
0.0197436
0.0328163
0.0514864
0.0769852
0.110415
0.152602
0.20394
0.264268
0.332775
0.407984
0.487803
0.569657
0.650693
0.728026
0.799
0.861434
0.913808
0.955376
0.986185
1.007
1.01915
1.02436
1.02447
1.02132
1.01648
1.01122
1.00643
1.00262
0.999977
0.99845
0.997837
0.997868
0.99827
0.998817
0.999347
0.999768
1.00005
1.00019
1.00022
1.0002
1.00014
1.00008
1.00003
0.999995
0.999979
0.999976
0.99998
0.999987
0.999994
0.999999
1
1
1
1
1
1
1
1
1
1
1
1
1
1
1
1
1
1
1
1
1
1
1
1
1
1
1
1
1
1
1
1
1
0.999998
0.999996
0.999994
0.999992
0.999994
1.00001
1.00003
1.00008
1.00016
1.00026
1.00035
1.00034
1.00009
0.999313
0.99762
0.994427
0.988961
0.980256
0.967184
0.948514
0.923015
0.889585
0.847398
0.79606
0.735732
0.667225
0.592016
0.512197
0.430343
0.349307
0.271974
0.201
0.138566
0.086192
0.0446236
0.0138153
-0.00699793
-0.0191524
-0.0243566
-0.0244739
-0.0213162
-0.0164775
-0.0112216
-0.00643253
-0.00262114
2.25122e-05
0.00154955
0.00216266
0.00213235
0.00172993
0.00118287
0.000652697
0.000232002
-4.53686e-05
-0.000187267
-0.000224891
-0.000197074
-0.000139282
-7.77101e-05
-2.77184e-05
4.79284e-06
2.05363e-05
2.37445e-05
1.96204e-05
1.26811e-05
5.99661e-06
1.11542e-06
-1.60697e-06
-2.53515e-06
-2.31894e-06
-1.58893e-06
-8.00568e-07
-1.98381e-07
1.46397e-07
2.69591e-07
2.50844e-07
1.69314e-07
8.14553e-08
1.63496e-08
-1.87334e-08
-2.92383e-08
-2.51151e-08
-1.54805e-08
-6.28629e-09
-1.62911e-10
2.63383e-09
3.03602e-09
2.2319e-09
1.14862e-09
2.9517e-10
-1.75267e-10
-3.20785e-10
-2.75332e-10
-1.62116e-10
-5.81335e-11
6.16971e-12
3.1224e-11
3.08163e-11
1.97565e-11
8.11646e-12
3.80768e-13
-2.94873e-12
-3.24459e-12
-2.17876e-12
-9.43156e-13
-9.35591e-14
2.83577e-13
3.28378e-13
2.22277e-13
9.57039e-14
9.09126e-15
-2.849e-14
-3.21994e-14
-2.11275e-14
-8.56907e-15
-3.46715e-16
2.95398e-15
3.04444e-15
1.8627e-15
6.65971e-16
-5.52645e-17
-3.04322e-16
-2.73585e-16
-1.50016e-16
-4.23326e-17
1.50257e-17
2.9914e-17
2.28841e-17
1.07147e-17
1.77083e-18
-2.2198e-18
-2.71601e-18
-1.73436e-18
-6.39043e-19
2.67228e-20
2.51553e-19
2.21789e-19
1.14563e-19
2.67692e-20
-1.56824e-20
-2.35359e-20
-1.58277e-20
-6.12325e-21
-4.96098e-23
2.05421e-21
1.84806e-21
9.43224e-22
2.09054e-22
-1.3387e-22
-1.88059e-22
-1.2004e-22
-4.21395e-23
3.2085e-24
1.67465e-23
1.3435e-23
6.08337e-24
8.29318e-25
-1.27518e-24
-1.35948e-24
-7.44764e-25
-1.93379e-25
7.59746e-26
1.26129e-25
8.18368e-26
2.84773e-26
-2.15536e-27
-1.0801e-26
-8.29721e-27
-3.4832e-27
-2.80996e-28
8.54778e-28
7.89195e-28
3.81353e-28
6.76816e-29
-6.22291e-29
-7.12444e-29
-3.86263e-29
-9.46353e-30
4.11171e-30
6.16042e-30
3.68676e-30
1.08852e-30
-2.38787e-31
-5.14298e-31
-3.35541e-31
-1.11978e-31
1.11747e-32
4.17599e-32
2.93619e-32
1.06608e-32
-2.82788e-34
-3.32104e-33
-2.4854e-33
-9.55939e-34
-1.86404e-35
2.60358e-34
2.04422e-34
8.15494e-35
3.83321e-36
-2.02331e-35
-1.63894e-35
-6.6582e-36
-4.01631e-37
1.56492e-36
1.28345e-36
5.22027e-37
3.2141e-38
-1.207e-37
-9.82636e-38
-3.93581e-38
-2.02779e-39
9.28001e-39
7.35506e-39
2.85262e-39
8.51927e-41
-7.09429e-40
-5.37972e-40
-1.98417e-40
1.92987e-41
)
;

boundaryField
{
    sides
    {
        type            zeroGradient;
    }
    empty
    {
        type            empty;
    }
}


// ************************************************************************* //
