/*--------------------------------*- C++ -*----------------------------------*\
| =========                 |                                                 |
| \\      /  F ield         | OpenFOAM: The Open Source CFD Toolbox           |
|  \\    /   O peration     | Version:  2312                                  |
|   \\  /    A nd           | Website:  www.openfoam.com                      |
|    \\/     M anipulation  |                                                 |
\*---------------------------------------------------------------------------*/
FoamFile
{
    version     2.0;
    format      ascii;
    arch        "LSB;label=32;scalar=64";
    class       volScalarField;
    location    "3.1";
    object      T;
}
// * * * * * * * * * * * * * * * * * * * * * * * * * * * * * * * * * * * * * //

dimensions      [0 0 0 1 0 0 0];

internalField   nonuniform List<scalar> 
1000
(
0
0
0
0
0
0
0
0
0
0
0
0
0
0
0
0
0
0
0
0
0
0
0
0
0
0
0
0
0
0
0
0
0
0
0
0
0
0
0
0
0
0
0
0
0
0
0
0
0
0
0
0
0
0
0
0
0
0
0
0
0
0
0
0
0
0
0
0
0
0
0
0
0
0
0
0
0
0
0
0
0
0
0
0
0
0
0
0
0
0
0
0
0
0
0
0
0
0
0
0
0
0
0
0
0
0
0
0
0
0
0
0
0
0
0
0
0
0
0
0
0
0
0
0
0
0
0
0
0
0
0
0
0
0
0
0
0
0
0
0
0
0
0
0
0
0
0
0
0
0
0
0
0
0
0
0
0
0
0
0
0
0
0
0
0
0
0
0
0
0
0
0
0
0
0
0
0
0
0
0
0
0
0
0
0
0
0
0
0
0
0
0
0
0
0
0
0
0
0
0
0
0
0
0
0
0
0
0
0
0
0
0
0
0
0
0
0
0
0
0
0
0
0
0
0
0
0
0
0
0
0
0
0
0
0
0
0
0
0
0
0
0
0
0
0
0
0
0
0
0
0
0
0
0
0
0
0
0
0
0
0
0
0
0
0
0
0
0
0
0
0
0
0
0
0
0
0
0
0
0
0
0
0
0
0
0
0
0
0
0
0
0
0
0
0
0
0
0
0
0
0
0
0
0
0
0
0
0
0
0
0
0
0
0
0
0
0
0
0
0
0
0
0
0
0
0
0
0
0
0
0
0
0
0
0
0
0
0
0
0
0
0
0
0
0
0
0
0
0
0
0
0
0
0
0
0
0
0
0
0
0
0
0
0
0
0
0
0
0
0
0
0
0
0
0
0
0
0
0
0
0
0
0
0
0
0
0
0
0
0
0
0
0
0
0
0
0
0
0
0
0
0
0
0
0
0
0
0
0
0
0
0
0
0
0
0
0
0
0
0
0
0
0
0
0
0
0
0
0
0
0
0
0
0
0
0
0
0
0
0
0
0
0
0
0
0
0
0
0
0
3.00658e-89
5.96123e-87
5.91178e-85
3.90984e-83
1.94004e-81
7.70378e-80
2.55014e-78
7.23816e-77
1.79825e-75
3.97255e-74
7.901e-73
1.42906e-71
2.37019e-70
3.62996e-69
5.16401e-68
6.85898e-67
8.54385e-66
1.002e-64
1.11023e-63
1.1658e-62
1.16335e-61
1.10601e-60
1.00405e-59
8.72159e-59
7.26281e-58
5.80812e-57
4.46771e-56
3.31051e-55
2.36626e-54
1.63358e-53
1.09056e-52
7.04801e-52
4.41416e-51
2.68175e-50
1.58188e-49
9.06764e-49
5.05512e-48
2.74297e-47
1.44971e-46
7.46818e-46
3.75236e-45
1.84002e-44
8.81106e-44
4.12257e-43
1.88571e-42
8.4368e-42
3.69392e-41
1.58347e-40
6.64881e-40
2.73575e-39
1.10354e-38
4.36571e-38
1.6945e-37
6.45522e-37
2.41444e-36
8.86967e-36
3.20132e-35
1.13558e-34
3.96012e-34
1.3581e-33
4.58152e-33
1.52078e-32
4.96839e-32
1.59798e-31
5.06112e-31
1.57886e-30
4.85252e-30
1.46966e-29
4.38721e-29
1.29115e-28
3.74694e-28
1.07244e-27
3.02797e-27
8.43528e-27
2.31898e-26
6.2925e-26
1.68561e-25
4.45833e-25
1.16451e-24
3.00429e-24
7.65664e-24
1.92797e-23
4.79726e-23
1.17973e-22
2.8677e-22
6.8914e-22
1.63743e-21
3.84733e-21
8.94038e-21
2.05498e-20
4.67273e-20
1.05123e-19
2.34016e-19
5.15538e-19
1.12408e-18
2.42606e-18
5.18353e-18
1.09652e-17
2.29677e-17
4.76407e-17
9.78682e-17
1.99137e-16
4.01377e-16
8.01465e-16
1.58559e-15
3.10821e-15
6.0379e-15
1.1624e-14
2.21796e-14
4.19493e-14
7.86507e-14
1.46192e-13
2.69416e-13
4.92311e-13
8.92082e-13
1.60307e-12
2.85706e-12
5.05051e-12
8.85593e-12
1.54045e-11
2.65832e-11
4.5514e-11
7.73196e-11
1.30338e-10
2.18033e-10
3.61967e-10
5.96406e-10
9.75367e-10
1.58335e-09
2.55149e-09
4.08176e-09
6.48283e-09
1.02228e-08
1.60064e-08
2.48863e-08
3.84231e-08
5.89138e-08
8.97137e-08
1.35688e-07
2.03842e-07
3.04182e-07
4.50908e-07
6.64017e-07
9.71474e-07
1.4121e-06
2.03943e-06
2.92671e-06
4.17351e-06
5.9142e-06
8.32886e-06
1.16572e-05
1.62158e-05
2.24203e-05
3.08125e-05
4.20935e-05
5.71643e-05
7.71752e-05
0.000103585
0.000138228
0.000183402
0.000241955
0.000317404
0.000414051
0.000537133
0.00069297
0.000889145
0.00113469
0.00144027
0.00181843
0.00228377
0.00285321
0.00354616
0.00438477
0.0053941
0.00660229
0.00804069
0.00974396
0.0117501
0.0141004
0.0168393
0.0200145
0.0236759
0.0278764
0.0326704
0.0381135
0.0442623
0.0511728
0.0589005
0.0674984
0.0770169
0.0875023
0.0989958
0.111532
0.12514
0.139839
0.15564
0.172544
0.190542
0.209613
0.229726
0.250838
0.272895
0.295833
0.319576
0.34404
0.369131
0.394748
0.420784
0.447125
0.473657
0.500261
0.526819
0.553214
0.579333
0.605064
0.630303
0.654952
0.678923
0.702132
0.724509
0.745992
0.766529
0.78608
0.804614
0.822111
0.83856
0.85396
0.868319
0.881653
0.893984
0.905342
0.915761
0.925281
0.933944
0.941796
0.948886
0.955261
0.960971
0.966067
0.970595
0.974604
0.97814
0.981246
0.983965
0.986335
0.988393
0.990174
0.991708
0.993025
0.994152
0.99511
0.995923
0.996608
0.997183
0.997661
0.998056
0.998378
0.998636
0.998836
0.998985
0.999086
0.999141
0.999151
0.999115
0.99903
0.99889
0.998691
0.998422
0.998073
0.997631
0.99708
0.996402
0.995575
0.994575
0.993373
0.991941
0.990242
0.988239
0.985891
0.983154
0.979981
0.97632
0.972121
0.967328
0.961885
0.955737
0.948826
0.941099
0.932501
0.922983
0.912497
0.901004
0.888467
0.874859
0.860161
0.84436
0.827456
0.809458
0.790387
0.770274
0.749162
0.727105
0.704167
0.680424
0.65596
0.630869
0.605252
0.579216
0.552875
0.526343
0.499739
0.473181
0.446786
0.420667
0.394936
0.369697
0.345048
0.321077
0.297868
0.275491
0.254008
0.233471
0.21392
0.195386
0.177889
0.16144
0.14604
0.131681
0.118347
0.106016
0.0946583
0.0842392
0.0747194
0.0660562
0.0582038
0.0511144
0.0447392
0.0390286
0.0339334
0.0294048
0.0253955
0.0218596
0.0187531
0.0160343
0.0136639
0.011605
0.00982345
0.00828766
0.00696866
0.00584008
0.00487799
0.00406086
0.0033694
0.00278641
0.00229667
0.00188676
0.00154489
0.00126081
0.00102559
0.000831514
0.000671959
0.000541247
0.000434542
0.000347739
0.000277373
0.00022053
0.00017477
0.000138059
0.000108709
8.53242e-05
6.67558e-05
5.20617e-05
4.04729e-05
3.1364e-05
2.42282e-05
1.86569e-05
1.43216e-05
1.09591e-05
8.35989e-06
6.35723e-06
4.81928e-06
3.64206e-06
2.74389e-06
2.06084e-06
1.54306e-06
1.15183e-06
8.57165e-07
6.35937e-07
4.70372e-07
3.46857e-07
2.55003e-07
1.86908e-07
1.36586e-07
9.95132e-08
7.22864e-08
5.23526e-08
3.78032e-08
2.72165e-08
1.95367e-08
1.39828e-08
9.97834e-09
7.09991e-09
5.03709e-09
3.56322e-09
2.51331e-09
1.76764e-09
1.23962e-09
8.66831e-10
6.04417e-10
4.20241e-10
2.91355e-10
2.01426e-10
1.3886e-10
9.54583e-11
6.54378e-11
4.47328e-11
3.04936e-11
2.07291e-11
1.40523e-11
9.49967e-12
6.40429e-12
4.30564e-12
2.88677e-12
1.93019e-12
1.28706e-12
8.55894e-13
5.67626e-13
3.75431e-13
2.47644e-13
1.62914e-13
1.06887e-13
6.99412e-14
4.5644e-14
2.97086e-14
1.92855e-14
1.24863e-14
8.06292e-15
5.19294e-15
3.33579e-15
2.13723e-15
1.36576e-15
8.70511e-16
5.53414e-16
3.5092e-16
2.21948e-16
1.40017e-16
8.81052e-17
5.5299e-17
3.46203e-17
2.16195e-17
1.34668e-17
8.36739e-18
5.18593e-18
3.2061e-18
1.97718e-18
1.21628e-18
7.46354e-19
4.56859e-19
2.78965e-19
1.69922e-19
1.03249e-19
6.25838e-20
3.78424e-20
2.28266e-20
1.37357e-20
8.24543e-21
4.93775e-21
2.94986e-21
1.75807e-21
1.04528e-21
6.20003e-22
3.66881e-22
2.16585e-22
1.27557e-22
7.49483e-23
4.39338e-23
2.56932e-23
1.49908e-23
8.72611e-24
5.06767e-24
2.93624e-24
1.69735e-24
9.78931e-25
5.63296e-25
3.2339e-25
1.85236e-25
1.05861e-25
6.03617e-26
3.43402e-26
1.94924e-26
1.10395e-26
6.23818e-27
3.51718e-27
1.97862e-27
1.11061e-27
6.22012e-28
3.47595e-28
1.93816e-28
1.07832e-28
5.98622e-29
3.31594e-29
1.83279e-29
1.01081e-29
5.5627e-30
3.05464e-30
1.67377e-30
9.15154e-31
4.99298e-31
2.71828e-31
1.47673e-31
8.00534e-32
4.33047e-32
2.3376e-32
1.25917e-32
6.76837e-33
3.63052e-33
1.94331e-33
1.03802e-33
5.53303e-34
2.94317e-34
1.5623e-34
8.2759e-35
4.3749e-35
2.30794e-35
1.21504e-35
6.38356e-36
3.34694e-36
1.75125e-36
9.14455e-37
4.76537e-37
2.47828e-37
1.28626e-37
6.66239e-38
3.44397e-38
1.77672e-38
9.14767e-39
4.70041e-39
2.41044e-39
1.23366e-39
6.30138e-40
3.21231e-40
1.63435e-40
8.29887e-41
4.20574e-41
2.12724e-41
1.07385e-41
5.41036e-42
2.72061e-42
1.36542e-42
6.83954e-43
)
;

boundaryField
{
    sides
    {
        type            zeroGradient;
    }
    empty
    {
        type            empty;
    }
}


// ************************************************************************* //
