/*--------------------------------*- C++ -*----------------------------------*\
| =========                 |                                                 |
| \\      /  F ield         | OpenFOAM: The Open Source CFD Toolbox           |
|  \\    /   O peration     | Version:  2312                                  |
|   \\  /    A nd           | Website:  www.openfoam.com                      |
|    \\/     M anipulation  |                                                 |
\*---------------------------------------------------------------------------*/
FoamFile
{
    version     2.0;
    format      ascii;
    arch        "LSB;label=32;scalar=64";
    class       volScalarField;
    location    "5";
    object      T;
}
// * * * * * * * * * * * * * * * * * * * * * * * * * * * * * * * * * * * * * //

dimensions      [0 0 0 1 0 0 0];

internalField   nonuniform List<scalar> 
1000
(
1.44843e-65
2.0137e-65
3.38481e-65
6.10425e-65
1.12446e-64
2.08263e-64
3.86007e-64
7.15002e-64
1.32306e-63
2.44545e-63
4.51475e-63
8.32529e-63
1.5334e-62
2.82096e-62
5.18356e-62
9.51362e-62
1.74401e-61
3.19331e-61
5.84006e-61
1.06679e-60
1.94637e-60
3.54696e-60
6.45611e-60
1.17373e-59
2.13133e-59
3.86557e-59
7.00261e-59
1.26703e-58
2.28979e-58
4.13318e-58
7.45167e-58
1.34185e-57
2.41341e-57
4.33549e-57
7.77899e-57
1.39408e-56
2.49532e-56
4.46113e-56
7.96597e-56
1.42072e-55
2.53078e-55
4.50272e-55
8.00148e-55
1.42017e-54
2.51758e-54
4.45759e-54
7.88296e-54
1.39236e-53
2.45632e-53
4.32802e-53
7.61667e-53
1.33879e-52
2.35032e-52
4.1211e-52
7.2172e-52
1.26239e-51
2.20538e-51
3.84808e-51
6.70611e-51
1.16725e-50
2.0292e-50
3.5233e-50
6.11e-50
1.05827e-49
1.8307e-49
3.16302e-49
5.45822e-49
9.40724e-49
1.61933e-48
2.78402e-48
4.78047e-48
8.19842e-48
1.40427e-47
2.40232e-47
4.1046e-47
7.00441e-47
1.1938e-46
2.03211e-46
3.4548e-46
5.8662e-46
9.94826e-46
1.68498e-45
2.85035e-45
4.81568e-45
8.12591e-45
1.36944e-44
2.30497e-44
3.87475e-44
6.50542e-44
1.09084e-43
1.82683e-43
3.05553e-43
5.10421e-43
8.51572e-43
1.41894e-42
2.36134e-42
3.92467e-42
6.51473e-42
1.08004e-41
1.78826e-41
2.95712e-41
4.88378e-41
8.05546e-41
1.327e-40
2.18323e-40
3.58734e-40
5.88696e-40
9.64839e-40
1.5793e-39
2.58176e-39
4.21515e-39
6.87309e-39
1.11927e-38
1.82037e-38
2.95683e-38
4.79661e-38
7.77113e-38
1.2574e-37
2.03191e-37
3.27925e-37
5.28547e-37
8.50808e-37
1.36779e-36
2.19605e-36
3.52131e-36
5.63902e-36
9.01862e-36
1.4405e-35
2.29784e-35
3.6607e-35
5.82428e-35
9.25454e-35
1.46859e-34
2.32746e-34
3.6838e-34
5.82295e-34
9.19226e-34
1.44922e-33
2.28179e-33
3.58798e-33
5.63448e-33
8.83667e-33
1.38405e-32
2.16495e-32
3.38197e-32
5.2762e-32
8.22056e-32
1.27911e-31
1.98767e-31
3.08464e-31
4.78071e-31
7.39958e-31
1.14379e-30
1.76568e-30
2.72208e-30
4.19098e-30
6.44397e-30
9.89499e-30
1.5174e-29
2.32385e-29
3.55417e-29
5.42863e-29
8.28063e-29
1.26142e-28
1.91899e-28
2.91547e-28
4.42349e-28
6.70255e-28
1.01423e-27
1.53267e-27
2.31302e-27
3.486e-27
5.2468e-27
7.88639e-27
1.1838e-26
1.77458e-26
2.65662e-26
3.97171e-26
5.92981e-26
8.84137e-26
1.31647e-25
1.95758e-25
2.90696e-25
4.31095e-25
6.38439e-25
9.44232e-25
1.3946e-24
2.05699e-24
3.02989e-24
4.45689e-24
6.54708e-24
9.60447e-24
1.40705e-23
2.05852e-23
3.00752e-23
4.38805e-23
6.39356e-23
9.30298e-23
1.35179e-22
1.96157e-22
2.84252e-22
4.1135e-22
5.94464e-22
8.57917e-22
1.23643e-21
1.77951e-21
2.55762e-21
3.67092e-21
5.26161e-21
7.53122e-21
1.0765e-20
1.53663e-20
2.19041e-20
3.11806e-20
4.43245e-20
6.29226e-20
8.9201e-20
1.2628e-19
1.78525e-19
2.52037e-19
3.55328e-19
5.00258e-19
7.03329e-19
9.87465e-19
1.38447e-18
1.9384e-18
2.7102e-18
3.78406e-18
5.27608e-18
7.34618e-18
1.02143e-17
1.41825e-17
1.96649e-17
2.72287e-17
3.76494e-17
5.19858e-17
7.16813e-17
9.87011e-17
1.35716e-16
1.86353e-16
2.55525e-16
3.49885e-16
4.78421e-16
6.53262e-16
8.90754e-16
1.21289e-15
1.6492e-15
2.23934e-15
3.03639e-15
4.11137e-15
5.55913e-15
7.50615e-15
1.01209e-14
1.36273e-14
1.83227e-14
2.46014e-14
3.29853e-14
4.41641e-14
5.90483e-14
7.88377e-14
1.05111e-13
1.39943e-13
1.86056e-13
2.47014e-13
3.27482e-13
4.33552e-13
5.73168e-13
7.56674e-13
9.97522e-13
1.31317e-12
1.72627e-12
2.26611e-12
2.97056e-12
3.88849e-12
5.08287e-12
6.63472e-12
8.64811e-12
1.12565e-11
1.46309e-11
1.89899e-11
2.46127e-11
3.18551e-11
4.11702e-11
5.31337e-11
6.84764e-11
8.81242e-11
1.13248e-10
1.45329e-10
1.86232e-10
2.38309e-10
3.04515e-10
3.88561e-10
4.95098e-10
6.2995e-10
8.00392e-10
1.0155e-09
1.28659e-09
1.62773e-09
2.0564e-09
2.59425e-09
3.26812e-09
4.11116e-09
5.16432e-09
6.47802e-09
8.11433e-09
1.01495e-08
1.2677e-08
1.58113e-08
1.96925e-08
2.44915e-08
3.04165e-08
3.77211e-08
4.67132e-08
5.77665e-08
7.13332e-08
8.79606e-08
1.08309e-07
1.33175e-07
1.63516e-07
2.00483e-07
2.45457e-07
3.00092e-07
3.66364e-07
4.46635e-07
5.43716e-07
6.60956e-07
8.02331e-07
9.72556e-07
1.17722e-06
1.42292e-06
1.71745e-06
2.06999e-06
2.49134e-06
2.99419e-06
3.59341e-06
4.30641e-06
5.15354e-06
6.15854e-06
7.34906e-06
8.75724e-06
1.04204e-05
1.23818e-05
1.46915e-05
1.74073e-05
2.05958e-05
2.43338e-05
2.87094e-05
3.38237e-05
3.97926e-05
4.67485e-05
5.48424e-05
6.42467e-05
7.5157e-05
8.77957e-05
0.000102415
0.000119299
0.000138771
0.000161193
0.000186974
0.000216572
0.000250503
0.000289341
0.000333731
0.000384389
0.000442115
0.000507797
0.000582418
0.000667068
0.000762952
0.000871398
0.000993867
0.00113197
0.00128745
0.00146226
0.00165849
0.00187844
0.0021246
0.00239968
0.00270663
0.00304862
0.00342907
0.00385168
0.0043204
0.0048395
0.00541352
0.00604732
0.00674606
0.00751525
0.00836071
0.00928861
0.0103054
0.0114181
0.0126337
0.0139598
0.0154043
0.0169753
0.0186815
0.0205315
0.0225346
0.0247
0.0270375
0.0295569
0.0322683
0.0351818
0.0383078
0.0416569
0.0452393
0.0490657
0.0531465
0.057492
0.0621125
0.0670177
0.0722175
0.0777213
0.0835379
0.0896759
0.0961432
0.102947
0.110095
0.117591
0.125443
0.133653
0.142225
0.151163
0.160466
0.170136
0.180172
0.190571
0.201332
0.212448
0.223916
0.235727
0.247874
0.260348
0.273137
0.28623
0.299614
0.313275
0.327196
0.341363
0.355756
0.370358
0.385149
0.400108
0.415216
0.430449
0.445786
0.461204
0.476679
0.492189
0.507709
0.523217
0.538687
0.554098
0.569424
0.584644
0.599735
0.614675
0.629443
0.644017
0.658378
0.672507
0.686385
0.699996
0.713324
0.726352
0.739067
0.751456
0.763508
0.775211
0.786556
0.797535
0.80814
0.818365
0.828205
0.837655
0.846712
0.855375
0.86364
0.871508
0.878979
0.886054
0.892732
0.899017
0.904911
0.910415
0.915533
0.920267
0.924622
0.928599
0.932202
0.935435
0.938301
0.940801
0.942939
0.944717
0.946137
0.9472
0.947909
0.948262
0.948262
0.947909
0.9472
0.946137
0.944717
0.942939
0.940801
0.938301
0.935435
0.932202
0.928599
0.924622
0.920267
0.915533
0.910415
0.904911
0.899017
0.892732
0.886054
0.878979
0.871508
0.86364
0.855375
0.846712
0.837655
0.828205
0.818365
0.80814
0.797535
0.786556
0.775211
0.763508
0.751456
0.739067
0.726352
0.713324
0.699996
0.686385
0.672507
0.658378
0.644017
0.629443
0.614675
0.599735
0.584644
0.569424
0.554098
0.538687
0.523217
0.507709
0.492189
0.476679
0.461204
0.445786
0.430449
0.415216
0.400108
0.385149
0.370358
0.355756
0.341363
0.327196
0.313275
0.299614
0.28623
0.273137
0.260348
0.247874
0.235727
0.223916
0.212448
0.201332
0.190571
0.180172
0.170136
0.160466
0.151163
0.142225
0.133653
0.125443
0.117591
0.110095
0.102947
0.0961432
0.0896759
0.0835379
0.0777213
0.0722175
0.0670177
0.0621125
0.057492
0.0531465
0.0490657
0.0452393
0.0416569
0.0383078
0.0351818
0.0322683
0.0295569
0.0270375
0.0247
0.0225346
0.0205315
0.0186815
0.0169753
0.0154043
0.0139598
0.0126337
0.0114181
0.0103054
0.00928861
0.00836071
0.00751525
0.00674606
0.00604732
0.00541352
0.0048395
0.0043204
0.00385168
0.00342907
0.00304862
0.00270663
0.00239968
0.0021246
0.00187844
0.00165849
0.00146226
0.00128745
0.00113197
0.000993867
0.000871398
0.000762952
0.000667068
0.000582418
0.000507797
0.000442115
0.000384389
0.000333731
0.000289341
0.000250503
0.000216572
0.000186974
0.000161193
0.000138771
0.000119299
0.000102415
8.77957e-05
7.5157e-05
6.42467e-05
5.48424e-05
4.67485e-05
3.97926e-05
3.38237e-05
2.87094e-05
2.43338e-05
2.05958e-05
1.74073e-05
1.46915e-05
1.23818e-05
1.04204e-05
8.75724e-06
7.34906e-06
6.15854e-06
5.15354e-06
4.30641e-06
3.59341e-06
2.99419e-06
2.49134e-06
2.06999e-06
1.71745e-06
1.42292e-06
1.17722e-06
9.72556e-07
8.02331e-07
6.60956e-07
5.43716e-07
4.46635e-07
3.66364e-07
3.00092e-07
2.45457e-07
2.00483e-07
1.63516e-07
1.33175e-07
1.08309e-07
8.79606e-08
7.13332e-08
5.77665e-08
4.67132e-08
3.77211e-08
3.04165e-08
2.44915e-08
1.96925e-08
1.58113e-08
1.2677e-08
1.01495e-08
8.11433e-09
6.47802e-09
5.16432e-09
4.11116e-09
3.26812e-09
2.59425e-09
2.0564e-09
1.62773e-09
1.28659e-09
1.0155e-09
8.00392e-10
6.2995e-10
4.95098e-10
3.88561e-10
3.04515e-10
2.38309e-10
1.86232e-10
1.45329e-10
1.13248e-10
8.81242e-11
6.84764e-11
5.31337e-11
4.11702e-11
3.18551e-11
2.46127e-11
1.89899e-11
1.46309e-11
1.12565e-11
8.64811e-12
6.63472e-12
5.08287e-12
3.88849e-12
2.97056e-12
2.26611e-12
1.72627e-12
1.31317e-12
9.97522e-13
7.56674e-13
5.73168e-13
4.33552e-13
3.27482e-13
2.47014e-13
1.86056e-13
1.39943e-13
1.05111e-13
7.88377e-14
5.90483e-14
4.41641e-14
3.29853e-14
2.46014e-14
1.83227e-14
1.36273e-14
1.01209e-14
7.50615e-15
5.55913e-15
4.11137e-15
3.03639e-15
2.23934e-15
1.6492e-15
1.21289e-15
8.90754e-16
6.53262e-16
4.78421e-16
3.49885e-16
2.55525e-16
1.86353e-16
1.35716e-16
9.87011e-17
7.16813e-17
5.19858e-17
3.76494e-17
2.72287e-17
1.96649e-17
1.41825e-17
1.02143e-17
7.34618e-18
5.27608e-18
3.78406e-18
2.7102e-18
1.9384e-18
1.38447e-18
9.87465e-19
7.03329e-19
5.00258e-19
3.55328e-19
2.52037e-19
1.78525e-19
1.2628e-19
8.9201e-20
6.29226e-20
4.43245e-20
3.11806e-20
2.19041e-20
1.53663e-20
1.0765e-20
7.53122e-21
5.26161e-21
3.67092e-21
2.55762e-21
1.77951e-21
1.23643e-21
8.57917e-22
5.94464e-22
4.1135e-22
2.84252e-22
1.96157e-22
1.35179e-22
9.30298e-23
6.39356e-23
4.38805e-23
3.00752e-23
2.05852e-23
1.40705e-23
9.60447e-24
6.54708e-24
4.45689e-24
3.02989e-24
2.05699e-24
1.3946e-24
9.44232e-25
6.38439e-25
4.31095e-25
2.90696e-25
1.95758e-25
1.31647e-25
8.84137e-26
5.92981e-26
3.97171e-26
2.65662e-26
1.77458e-26
1.1838e-26
7.88639e-27
5.2468e-27
3.486e-27
2.31302e-27
1.53267e-27
1.01423e-27
6.70255e-28
4.42349e-28
2.91547e-28
1.91899e-28
1.26142e-28
8.28063e-29
5.42863e-29
3.55417e-29
2.32385e-29
1.5174e-29
9.89499e-30
6.44397e-30
4.19098e-30
2.72208e-30
1.76568e-30
1.14379e-30
7.39958e-31
4.78071e-31
3.08464e-31
1.98767e-31
1.27911e-31
8.22056e-32
5.2762e-32
3.38197e-32
2.16495e-32
1.38405e-32
8.83667e-33
5.63448e-33
3.58798e-33
2.28179e-33
1.44922e-33
9.19226e-34
5.82295e-34
3.6838e-34
2.32746e-34
1.46859e-34
9.25454e-35
5.82428e-35
3.6607e-35
2.29784e-35
1.4405e-35
9.01862e-36
5.63902e-36
3.52131e-36
2.19605e-36
1.36779e-36
8.50808e-37
5.28547e-37
3.27925e-37
2.03191e-37
1.2574e-37
7.77113e-38
4.79661e-38
2.95683e-38
1.82037e-38
1.11927e-38
6.87309e-39
4.21515e-39
2.58176e-39
1.5793e-39
9.64839e-40
5.88696e-40
3.58734e-40
2.18323e-40
1.327e-40
8.05546e-41
4.88378e-41
2.95712e-41
1.78826e-41
1.08004e-41
6.51473e-42
3.92467e-42
2.36134e-42
1.41894e-42
8.51572e-43
5.10421e-43
3.05553e-43
1.82683e-43
1.09084e-43
6.50542e-44
3.87475e-44
2.30497e-44
1.36944e-44
8.12591e-45
4.81568e-45
2.85035e-45
1.68498e-45
9.94826e-46
5.8662e-46
3.4548e-46
2.03211e-46
1.1938e-46
7.00441e-47
4.1046e-47
2.40232e-47
1.40427e-47
8.19842e-48
4.78047e-48
2.78402e-48
1.61933e-48
9.40724e-49
5.45822e-49
3.16302e-49
1.8307e-49
1.05827e-49
6.11e-50
3.5233e-50
2.0292e-50
1.16725e-50
6.70611e-51
3.84808e-51
2.20538e-51
1.26239e-51
7.2172e-52
4.1211e-52
2.35032e-52
1.33879e-52
7.61667e-53
4.32802e-53
2.45632e-53
1.39236e-53
7.88296e-54
4.45759e-54
2.51758e-54
1.42017e-54
8.00148e-55
4.50272e-55
2.53078e-55
1.42072e-55
7.96597e-56
4.46113e-56
2.49532e-56
1.39408e-56
7.77899e-57
4.33549e-57
2.41341e-57
1.34185e-57
7.45167e-58
4.13318e-58
2.28979e-58
1.26703e-58
7.00261e-59
3.86557e-59
2.13133e-59
1.17373e-59
6.45611e-60
3.54696e-60
1.94637e-60
1.06679e-60
5.84006e-61
3.19331e-61
1.74401e-61
9.51362e-62
5.18356e-62
2.82096e-62
1.5334e-62
8.32529e-63
4.51475e-63
2.44545e-63
1.32306e-63
7.15002e-64
3.86007e-64
2.08263e-64
1.12446e-64
6.10425e-65
3.38481e-65
2.0137e-65
1.44843e-65
)
;

boundaryField
{
    sides
    {
        type            zeroGradient;
    }
    empty
    {
        type            empty;
    }
}


// ************************************************************************* //
