/*--------------------------------*- C++ -*----------------------------------*\
| =========                 |                                                 |
| \\      /  F ield         | OpenFOAM: The Open Source CFD Toolbox           |
|  \\    /   O peration     | Version:  2312                                  |
|   \\  /    A nd           | Website:  www.openfoam.com                      |
|    \\/     M anipulation  |                                                 |
\*---------------------------------------------------------------------------*/
FoamFile
{
    version     2.0;
    format      ascii;
    arch        "LSB;label=32;scalar=64";
    class       volScalarField;
    location    "4.8";
    object      T;
}
// * * * * * * * * * * * * * * * * * * * * * * * * * * * * * * * * * * * * * //

dimensions      [0 0 0 1 0 0 0];

internalField   nonuniform List<scalar> 
1000
(
6.16808e-285
-6.30895e-286
2.67269e-284
-1.12889e-283
5.66482e-283
-2.74917e-282
1.3348e-281
-6.44948e-281
3.10363e-280
-1.48726e-279
7.09695e-279
-3.37217e-278
1.59547e-277
-7.51613e-277
3.52545e-276
-1.6464e-275
7.65496e-275
-3.54342e-274
1.6329e-273
-7.491e-273
3.42096e-272
-1.55513e-271
7.03693e-271
-3.16941e-270
1.42082e-269
-6.33932e-269
2.81498e-268
-1.244e-267
5.47085e-267
-2.39422e-266
1.04262e-265
-4.51776e-265
1.94775e-264
-8.35479e-264
3.5654e-263
-1.51367e-262
6.3926e-262
-2.68551e-261
1.12216e-260
-4.66372e-260
1.9277e-259
-7.924e-259
3.23909e-258
-1.31657e-257
5.32085e-257
-2.13796e-256
8.54028e-256
-3.39127e-255
1.33856e-254
-5.25123e-254
2.04737e-253
-7.93244e-253
3.05386e-252
-1.16811e-251
4.4388e-251
-1.67552e-250
6.28183e-250
-2.33898e-249
8.64802e-249
-3.17469e-248
1.15697e-247
-4.18518e-247
1.5025e-246
-5.35243e-246
1.8917e-245
-6.63187e-245
2.30579e-244
-7.94897e-244
2.71652e-243
-9.20072e-243
3.08761e-242
-1.02634e-241
3.37827e-241
-1.10074e-240
3.54891e-240
-1.13174e-239
3.56815e-239
-1.11161e-238
3.41998e-238
-1.03839e-237
3.10904e-237
-9.17123e-237
2.66256e-236
-7.59766e-236
2.12757e-235
-5.83517e-235
1.56345e-234
-4.07862e-234
1.03113e-233
-2.50919e-233
5.81528e-233
-1.26037e-232
2.46338e-232
-3.95545e-232
3.36155e-232
9.63572e-232
-7.05479e-231
2.8664e-230
-9.5114e-230
2.79312e-229
-7.43713e-229
1.79727e-228
-3.86344e-228
6.93665e-228
-8.14082e-228
-6.4943e-228
8.54891e-227
-3.69992e-226
1.21594e-225
-3.39049e-225
8.19126e-225
-1.6693e-224
2.53458e-224
-1.0087e-224
-1.1947e-223
6.30053e-223
-2.17615e-222
6.05618e-222
-1.39959e-221
2.54195e-221
-2.6178e-221
-4.55726e-221
3.82097e-220
-1.46022e-219
4.19888e-219
-9.65419e-219
1.65742e-218
-1.22756e-218
-5.25731e-218
3.17606e-217
-1.0877e-216
2.81436e-216
-5.51529e-216
6.2992e-216
7.83404e-216
-7.56394e-215
2.83393e-214
-7.57724e-214
1.49037e-213
-1.61593e-213
-2.59426e-213
2.17283e-212
-7.7411e-212
1.94137e-211
-3.36546e-211
1.92935e-211
1.3425e-210
-6.96577e-210
2.09671e-209
-4.40389e-209
5.12589e-209
6.69353e-209
-6.09372e-208
2.1179e-207
-4.92022e-207
6.87563e-207
3.00777e-207
-5.63236e-206
2.12251e-205
-5.09984e-205
7.28632e-205
2.84299e-205
-5.78921e-204
2.15771e-203
-5.00723e-203
6.38671e-203
6.23653e-203
-6.53324e-202
2.19841e-201
-4.56094e-201
4.07355e-201
1.2825e-200
-7.59225e-200
2.15174e-199
-3.57476e-199
2.85189e-200
2.14057e-198
-8.40893e-198
1.87561e-197
-1.87699e-197
-4.63394e-197
2.93301e-196
-8.16895e-196
1.23609e-195
4.78914e-196
-9.51634e-195
3.24085e-194
-6.07056e-194
2.19966e-194
2.97443e-193
-1.22705e-192
2.62892e-192
-1.93196e-192
-9.33385e-192
4.56862e-191
-1.06379e-190
9.78714e-191
3.09651e-190
-1.70642e-189
4.12736e-189
-4.0136e-189
-1.13822e-188
6.45967e-188
-1.55019e-187
1.40376e-187
4.68618e-187
-2.47768e-186
5.62182e-186
-3.99931e-186
-2.08791e-185
9.53034e-185
-1.93901e-184
6.87395e-185
9.55665e-184
-3.60784e-183
6.1498e-183
1.66684e-183
-4.29841e-182
1.30884e-181
-1.66036e-181
-2.55749e-181
1.83772e-180
-4.37696e-180
2.91401e-180
1.72112e-179
-7.24873e-179
1.25791e-178
4.10237e-179
-8.89177e-178
2.53705e-177
-2.5467e-177
-7.38713e-177
3.81751e-176
-7.30325e-176
-5.78534e-177
4.56484e-175
-1.3517e-174
1.34867e-174
4.04243e-174
-2.01916e-173
3.60454e-173
1.36879e-173
-2.55822e-172
6.71138e-172
-4.40113e-172
-2.71657e-171
1.05058e-170
-1.41885e-170
-2.16584e-170
1.46277e-169
-2.88168e-169
-5.0425e-170
1.8499e-168
-4.89716e-168
2.74502e-168
2.13109e-167
-7.52118e-167
8.14584e-167
2.20133e-166
-1.08052e-165
1.63787e-165
1.93016e-165
-1.48144e-164
2.82957e-164
1.15994e-164
-1.9659e-163
4.50095e-163
-2.95676e-164
-2.55472e-162
6.80276e-162
-2.65092e-162
-3.28685e-161
9.94395e-161
-6.13973e-161
-4.23263e-160
1.42164e-159
-1.09907e-159
-5.51431e-159
2.00252e-158
-1.73679e-158
-7.33728e-158
2.79194e-157
-2.52482e-157
-1.00355e-156
3.86152e-156
-3.41909e-156
-1.41342e-155
5.2987e-155
-4.29326e-155
-2.04302e-154
7.19857e-154
-4.87249e-154
-3.00791e-153
9.6412e-153
-4.6324e-153
-4.46637e-152
1.26433e-151
-2.65837e-152
-6.61815e-151
1.60688e-150
2.52714e-151
-9.68408e-150
1.94818e-149
1.31319e-149
-1.38483e-148
2.19292e-148
3.21643e-148
-1.91385e-147
2.1664e-147
6.32305e-147
-2.5216e-146
1.58689e-146
1.09773e-145
-3.10612e-145
5.28547e-147
1.73374e-144
-3.45784e-144
-2.92635e-144
2.50765e-143
-3.22323e-143
-7.81371e-143
3.29472e-142
-1.89742e-142
-1.47914e-141
3.82821e-141
1.11006e-141
-2.33393e-140
3.66528e-140
6.27829e-140
-3.16839e-139
2.21134e-139
1.35974e-138
-3.62996e-138
-1.13548e-138
2.20218e-137
-3.18652e-137
-6.66027e-137
2.89052e-136
-1.22912e-136
-1.38217e-135
2.97907e-135
2.65476e-135
-2.06859e-134
1.91495e-134
8.2235e-134
-2.36482e-133
-7.3078e-134
1.40552e-132
-1.80044e-132
-4.86095e-132
1.72762e-131
6.05796e-134
-9.39182e-131
1.4059e-130
2.99974e-130
-1.20385e-129
1.37066e-130
6.30917e-129
-9.8042e-129
-2.00829e-128
8.11919e-128
-5.37931e-129
-4.29413e-127
6.18489e-127
1.4649e-126
-5.29256e-126
-7.87823e-127
2.93857e-125
-3.42643e-125
-1.12643e-124
3.27627e-124
1.84421e-124
-1.97846e-123
1.48331e-123
8.69589e-123
-1.84998e-122
-2.38235e-122
1.26621e-121
-2.3521e-122
-6.42891e-121
8.68672e-121
2.40271e-120
-7.30708e-120
-4.48993e-120
4.34747e-119
-2.39548e-119
-2.02717e-118
3.42669e-118
7.0186e-118
-2.52991e-117
-1.0664e-117
1.43276e-116
-8.84846e-117
-6.60416e-116
1.11005e-115
2.36707e-115
-8.04561e-115
-4.7198e-115
4.62167e-114
-1.79693e-114
-2.23462e-113
2.92926e-113
8.98681e-113
-2.29616e-112
-2.67645e-112
1.41121e-111
2.064e-112
-7.43912e-111
4.94007e-111
3.43225e-110
-5.22126e-110
-1.35929e-109
3.7055e-109
4.201e-109
-2.2032e-108
-5.60796e-109
1.16445e-107
-5.23406e-108
-5.57537e-107
6.40132e-107
2.41361e-106
-4.80962e-106
-9.20136e-106
3.00924e-105
2.82813e-105
-1.69084e-104
-4.41976e-105
8.78817e-104
-2.68528e-104
-4.28038e-103
3.6394e-103
1.9618e-102
-2.82811e-102
-8.43468e-102
1.82671e-101
3.35858e-101
-1.06832e-100
-1.19876e-100
5.8546e-100
3.49409e-100
-3.05956e-99
-5.16051e-100
1.54048e-98
-3.21499e-99
-7.52287e-98
4.22982e-98
3.57968e-97
-3.25837e-97
-1.66539e-96
2.10976e-96
7.5954e-96
-1.24912e-95
-3.4034e-95
6.99625e-95
1.50135e-94
-3.77218e-94
-6.53356e-94
1.97827e-93
2.8115e-93
-1.01598e-92
-1.19985e-92
5.13391e-92
5.0982e-92
-2.56139e-91
-2.16825e-91
1.26499e-90
9.29459e-91
-6.19623e-90
-4.05043e-90
3.01446e-89
1.81122e-89
-1.45798e-88
-8.3798e-89
7.01454e-88
4.0309e-88
-3.35753e-87
-2.01543e-87
1.5985e-86
1.04194e-86
-7.565e-86
-5.52259e-86
3.55511e-85
2.97311e-85
-1.65648e-84
-1.61199e-84
7.63683e-84
8.74225e-84
-3.47409e-83
-4.71773e-83
1.55368e-82
2.52354e-82
-6.79618e-82
-1.33407e-81
2.88633e-81
6.95345e-81
-1.17659e-80
-3.56572e-80
4.51362e-80
1.79509e-79
-1.56566e-79
-8.85058e-79
4.41499e-79
4.26125e-78
-5.66597e-79
-1.99589e-77
-4.79402e-78
9.04695e-77
5.79108e-77
-3.9383e-76
-4.31881e-76
1.62662e-75
2.70541e-75
-6.23925e-75
-1.5316e-74
2.12565e-74
8.04799e-74
-5.67553e-74
-3.96417e-73
5.0505e-74
1.83177e-72
7.75441e-73
-7.88373e-72
-8.02803e-72
3.10245e-71
5.48009e-71
-1.06902e-70
-3.13496e-70
2.84072e-70
1.59376e-69
-2.34475e-70
-7.3125e-69
-3.90355e-69
3.00609e-68
3.8533e-68
-1.06835e-67
-2.49304e-67
2.92578e-67
1.3282e-66
-2.91929e-67
-6.12066e-66
-3.49539e-66
2.4322e-65
3.50525e-65
-7.87487e-65
-2.1986e-64
1.62015e-64
1.10509e-63
2.42845e-64
-4.63517e-63
-5.17476e-63
1.56301e-62
3.68334e-62
-3.42567e-62
-1.9247e-61
-3.27381e-62
8.05141e-61
9.21211e-61
-2.5875e-60
-6.55068e-60
4.61877e-60
3.29575e-59
1.38791e-59
-1.27479e-58
-1.9328e-58
3.42421e-58
1.19531e-57
-1.71845e-58
-5.2977e-57
-5.12273e-57
1.68618e-56
4.08319e-56
-2.51396e-56
-2.02264e-55
-1.28579e-55
7.0519e-55
1.37936e-54
-1.32566e-54
-7.41501e-54
-3.46333e-54
2.68985e-53
4.79467e-53
-5.26083e-53
-2.67161e-52
-1.2116e-52
9.58568e-52
1.74979e-51
-1.6947e-51
-9.5072e-51
-5.6429e-51
3.17855e-50
6.64144e-50
-4.04661e-50
-3.2955e-49
-2.91244e-49
9.46576e-49
2.53148e-48
-2.76415e-49
-1.07532e-47
-1.44137e-47
2.28629e-47
9.22558e-47
4.34907e-47
-3.09715e-46
-6.41296e-46
2.83363e-46
3.02298e-45
3.49701e-45
-6.76916e-45
-2.46041e-44
-1.14115e-44
8.0601e-44
1.73879e-43
-4.35308e-44
-7.63837e-43
-1.06711e-42
1.29227e-42
6.36334e-42
5.42442e-42
-1.61269e-41
-4.851e-41
-1.84098e-41
1.59649e-40
3.45762e-40
-3.04445e-41
-1.40714e-39
-2.33729e-39
1.38717e-39
1.15602e-38
1.51649e-38
-1.77553e-38
-9.07608e-38
-9.57033e-38
1.76215e-37
6.9216e-37
5.98234e-37
-1.54998e-36
-5.18748e-36
-3.8025e-36
1.2649e-35
3.8528e-35
2.54079e-35
-9.76676e-35
-2.85068e-34
-1.83789e-34
7.18777e-34
2.10535e-33
1.45054e-33
-5.03501e-33
-1.54962e-32
-1.22482e-32
3.32129e-32
1.13091e-31
1.06986e-31
-2.00989e-31
-8.11198e-31
-9.36622e-31
1.04698e-30
5.6463e-30
8.02707e-30
-3.76599e-30
-3.74349e-29
-6.61921e-29
-5.41343e-30
2.2954e-28
5.17396e-28
2.94275e-28
-1.22965e-27
-3.7691e-27
-3.89743e-27
4.90881e-27
2.49554e-26
3.83697e-26
-2.80461e-27
-1.43291e-25
-3.15889e-25
-2.12531e-25
6.32292e-25
2.20991e-24
2.8866e-24
-1.06801e-24
-1.26418e-23
-2.59341e-23
-1.69247e-23
5.04473e-23
1.78965e-22
2.52326e-22
-1.49216e-23
-9.08734e-22
-2.14821e-21
-2.0938e-21
2.26631e-21
1.27302e-20
2.35952e-20
1.49278e-20
-4.31976e-20
-1.58337e-19
-2.50129e-19
-9.40913e-20
6.04921e-19
1.84885e-18
2.67668e-18
6.57911e-19
-7.23533e-18
-2.08153e-17
-2.98095e-17
-8.51049e-18
7.61539e-17
2.27143e-16
3.46451e-16
1.69842e-16
-6.81064e-16
-2.361e-15
-4.0831e-15
-3.28498e-15
4.3512e-15
2.22944e-14
4.63536e-14
5.45553e-14
8.59168e-16
-1.71086e-13
-4.72305e-13
-7.60377e-13
-6.14116e-13
6.84251e-13
3.82748e-12
8.55749e-12
1.2084e-11
7.45933e-12
-1.62909e-11
-6.91224e-11
-1.46439e-10
-2.06099e-10
-1.43152e-10
2.15371e-10
1.05391e-09
2.39582e-09
3.77736e-09
3.8094e-09
-1.5986e-10
-1.1799e-08
-3.41822e-08
-6.58854e-08
-9.42192e-08
-8.63559e-08
1.80865e-08
3.04965e-07
8.6036e-07
1.70358e-06
2.65949e-06
3.16148e-06
2.00535e-06
-2.86946e-06
-1.44048e-05
-3.59636e-05
-6.99441e-05
-0.000114875
-0.000160295
-0.000178688
-0.000113915
0.00013409
0.000727946
0.00191356
0.00404072
0.00758022
0.0131335
0.0214304
0.0333099
0.049683
0.071473
0.0995393
0.134586
0.177064
0.227086
0.284344
0.348078
0.417067
0.489672
0.56393
0.637682
0.708729
0.775002
0.834723
0.886538
0.929614
0.96367
0.988968
1.00624
1.0166
1.02135
1.02194
1.01973
1.01594
1.01158
1.00739
1.00383
1.00115
0.999373
0.99841
0.998087
0.998201
0.998562
0.999012
0.999441
0.999785
1.00002
1.00015
1.00019
1.00018
1.00014
1.00009
1.00004
1.00001
0.999988
0.99998
0.99998
0.999984
0.99999
0.999995
0.999999
1
1
1
1
1
1
1
1
1
1
1
1
1
1
1
1
1
1
1
1
1
1
1
1
1
1
1
0.999999
0.999998
0.999997
0.999997
0.999998
1
1.00001
1.00004
1.00007
1.00011
1.00016
1.00018
1.00011
0.999866
0.999272
0.998086
0.995959
0.99242
0.986866
0.97857
0.96669
0.950317
0.928527
0.900461
0.865414
0.822936
0.772914
0.715656
0.651922
0.582933
0.510328
0.43607
0.362318
0.291271
0.224998
0.165277
0.113462
0.0703864
0.0363304
0.0110319
-0.00624387
-0.0165962
-0.0213548
-0.021939
-0.0197251
-0.0159392
-0.0115818
-0.00738984
-0.00383488
-0.00114918
0.000627331
0.00159023
0.00191341
0.00179877
0.00143793
0.000987653
0.00055853
0.000214584
-1.9737e-05
-0.000148619
-0.000193145
-0.000181001
-0.000138879
-8.79631e-05
-4.21783e-05
-8.49282e-06
1.15586e-05
1.98989e-05
2.00475e-05
1.5703e-05
9.88169e-06
4.56611e-06
7.26361e-07
-1.44514e-06
-2.22798e-06
-2.09586e-06
-1.51748e-06
-8.47976e-07
-2.9638e-07
5.70145e-08
2.19894e-07
2.44345e-07
1.92528e-07
1.15938e-07
4.72286e-08
8.17039e-10
-2.20166e-08
-2.70089e-08
-2.18883e-08
-1.32688e-08
-5.38015e-09
-8.59698e-11
2.44432e-09
2.92221e-09
2.28524e-09
1.30884e-09
4.63029e-10
-6.79765e-11
-2.91664e-10
-3.04568e-10
-2.16167e-10
-1.08586e-10
-2.58154e-11
1.9615e-11
3.37153e-11
2.91716e-11
1.77115e-11
6.86956e-12
-1.60302e-13
-3.19058e-12
-3.45282e-12
-2.41086e-12
-1.14719e-12
-2.13115e-13
2.60835e-13
3.74022e-13
2.93035e-13
1.5683e-13
4.4441e-14
-1.84938e-14
-3.83389e-14
-3.29903e-14
-1.89663e-14
-6.33487e-15
1.16894e-15
3.82897e-15
3.51902e-15
2.09979e-15
7.47616e-16
-7.73227e-17
-3.8122e-16
-3.60433e-16
-2.16336e-16
-7.69748e-17
7.68064e-18
3.82625e-17
3.56369e-17
2.08607e-17
6.99213e-18
-1.14056e-18
-3.85673e-18
-3.3948e-18
-1.87784e-18
-5.50669e-19
1.77057e-19
3.84322e-19
3.09099e-19
1.56106e-19
3.51618e-20
-2.46727e-20
-3.70755e-20
-2.65631e-20
-1.18146e-20
1.95052e-22
)
;

boundaryField
{
    sides
    {
        type            zeroGradient;
    }
    empty
    {
        type            empty;
    }
}


// ************************************************************************* //
