/*--------------------------------*- C++ -*----------------------------------*\
| =========                 |                                                 |
| \\      /  F ield         | OpenFOAM: The Open Source CFD Toolbox           |
|  \\    /   O peration     | Version:  2312                                  |
|   \\  /    A nd           | Website:  www.openfoam.com                      |
|    \\/     M anipulation  |                                                 |
\*---------------------------------------------------------------------------*/
FoamFile
{
    version     2.0;
    format      ascii;
    arch        "LSB;label=32;scalar=64";
    class       volScalarField;
    location    "3.3";
    object      T;
}
// * * * * * * * * * * * * * * * * * * * * * * * * * * * * * * * * * * * * * //

dimensions      [0 0 0 1 0 0 0];

internalField   nonuniform List<scalar> 
1000
(
0
0
0
0
0
0
0
0
0
0
0
0
0
0
0
0
0
0
0
0
0
0
0
0
0
0
0
0
0
0
0
0
0
0
0
0
0
0
0
0
0
0
0
0
0
0
0
0
0
0
0
0
0
0
0
0
0
0
0
0
0
0
0
0
0
0
0
0
0
0
0
0
0
0
0
0
0
0
0
0
0
0
0
0
0
0
0
0
0
0
0
0
0
0
0
0
0
0
0
0
0
0
0
0
0
0
0
0
0
0
0
0
0
0
0
0
0
0
0
0
0
0
0
0
0
0
0
0
0
0
0
0
0
0
0
0
0
0
0
0
0
0
0
0
0
0
0
0
0
0
0
0
0
0
0
0
0
0
0
0
0
0
0
0
0
0
0
0
0
0
0
0
0
-4.94066e-324
2.96439e-323
-4.94066e-324
2.96439e-323
-4.94066e-324
2.96439e-323
-4.94066e-324
2.96439e-323
-4.94066e-324
2.96439e-323
-4.94066e-324
2.96439e-323
-4.94066e-324
2.96439e-323
-4.94066e-324
2.96439e-323
-4.94066e-324
2.96439e-323
-4.94066e-324
2.96439e-323
-4.94066e-324
2.96439e-323
-4.94066e-324
2.96439e-323
-4.94066e-324
2.96439e-323
-4.94066e-324
2.96439e-323
-4.94066e-324
2.96439e-323
-4.94066e-324
2.96439e-323
-4.94066e-324
2.96439e-323
-4.94066e-324
2.96439e-323
-4.94066e-324
2.96439e-323
-4.94066e-324
2.96439e-323
-4.94066e-324
2.96439e-323
-4.94066e-324
2.96439e-323
-4.94066e-324
2.96439e-323
-4.94066e-324
2.96439e-323
-4.94066e-324
2.96439e-323
-4.94066e-324
2.96439e-323
-4.94066e-324
2.96439e-323
-4.94066e-324
2.96439e-323
-4.94066e-324
2.96439e-323
-4.94066e-324
2.96439e-323
-4.94066e-324
2.96439e-323
-4.94066e-324
2.96439e-323
-4.94066e-324
2.96439e-323
-4.94066e-324
2.96439e-323
-4.94066e-324
2.96439e-323
-4.94066e-324
2.96439e-323
-4.94066e-324
2.96439e-323
-4.94066e-324
2.96439e-323
-4.94066e-324
2.96439e-323
-4.94066e-324
2.96439e-323
-4.94066e-324
2.96439e-323
-4.94066e-324
2.96439e-323
-4.94066e-324
9.88131e-324
2.96439e-323
5.43472e-323
7.41098e-323
9.88131e-323
1.18576e-322
1.43279e-322
1.63042e-322
1.87745e-322
2.32211e-322
7.46039e-322
3.03356e-321
3.01874e-321
-9.24397e-321
-1.39228e-319
-1.39933e-318
-1.43231e-317
-1.58508e-316
-1.83864e-315
-2.24462e-314
-2.76101e-313
-3.51891e-312
-4.41556e-311
-5.91104e-310
-7.62428e-309
-1.19407e-307
-1.69813e-306
-5.42816e-305
-1.04982e-303
-4.34999e-301
-1.02152e-299
-1.51455e-298
-2.25404e-297
-3.15024e-296
-3.57487e-295
-3.27246e-294
-1.58105e-293
-1.57123e-293
5.10575e-293
7.57814e-292
7.60051e-291
7.76393e-290
8.55945e-289
9.88217e-288
1.19944e-286
1.47376e-285
1.8702e-284
2.36118e-283
3.09474e-282
3.99816e-281
5.52252e-280
7.43233e-279
1.15771e-277
1.70882e-276
3.49111e-275
6.0321e-274
1.88937e-272
3.63258e-271
1.69809e-269
3.08098e-268
2.34538e-266
3.42345e-265
9.29333e-263
7.67107e-262
2.3252e-259
-7.29763e-259
1.4549e-258
9.22211e-258
-1.50378e-257
-5.48027e-256
-5.74481e-255
-1.03707e-253
-1.14514e-252
-3.31532e-251
-3.67244e-250
-1.17492e-248
-1.14226e-247
-3.55628e-246
-2.99948e-245
-9.69532e-244
-7.17857e-243
-2.14708e-241
-1.44154e-240
-3.61584e-239
-2.35157e-238
-8.48751e-237
-4.71028e-236
-8.14931e-234
-9.12762e-234
-8.12022e-232
5.72299e-231
1.48836e-230
2.82618e-230
2.06448e-229
3.14056e-228
3.12967e-227
5.70161e-226
6.32886e-225
1.78731e-223
1.97559e-222
6.10438e-221
5.97867e-220
1.76935e-218
1.51771e-217
4.81804e-216
3.65189e-215
1.15359e-213
7.79345e-213
2.16241e-211
1.36727e-210
5.50102e-209
2.86686e-208
4.36095e-206
3.43273e-206
4.2529e-204
-2.32112e-203
-9.20275e-203
-1.76534e-202
-9.00545e-202
-1.10597e-200
-1.07666e-199
-1.25064e-198
-1.29663e-197
-1.92922e-196
-2.26826e-195
-3.85591e-194
-4.66474e-193
-8.09072e-192
-9.62472e-191
-1.62539e-189
-1.88655e-188
-3.02806e-187
-3.40178e-186
-5.36875e-185
-5.80731e-184
-1.10217e-182
-1.18302e-181
-4.98252e-180
-4.86833e-179
-1.79645e-176
-7.08332e-176
-3.4215e-174
-7.90821e-174
1.46658e-172
2.39574e-172
9.24054e-172
1.56789e-170
1.08234e-169
7.32914e-169
1.83888e-167
1.49863e-166
5.38112e-166
1.15118e-164
2.81415e-163
2.27524e-163
7.47702e-163
1.20173e-160
3.42679e-160
-1.80701e-159
2.37032e-159
3.46293e-157
2.34432e-157
-7.41846e-156
1.37295e-155
7.19847e-154
-1.58911e-154
-2.33376e-152
3.27181e-152
1.64203e-150
-3.5932e-151
-6.97288e-149
9.41474e-150
4.19398e-147
2.80845e-147
-2.00615e-145
-2.17733e-145
8.40978e-144
1.71084e-143
-2.78702e-142
-1.4195e-141
6.54255e-141
8.13252e-140
-9.18764e-140
-4.87831e-138
-3.5233e-138
1.99365e-136
4.26458e-136
-4.65368e-135
-4.50115e-134
3.15191e-134
1.94449e-132
1.52656e-132
-7.1115e-131
-3.92845e-130
6.40661e-130
1.51324e-128
5.6015e-129
-6.63483e-127
-4.36508e-126
2.64047e-126
1.47938e-124
1.27685e-124
-3.84534e-123
-4.27161e-122
-2.22855e-122
1.1993e-120
4.29943e-120
-8.86389e-120
-3.18839e-118
-5.58893e-118
3.28887e-117
6.14917e-116
6.43952e-116
-8.72596e-115
-1.20276e-113
-1.14573e-113
1.76142e-112
2.22037e-111
2.08404e-111
-3.08387e-110
-2.30783e-109
-8.16808e-110
5.38144e-108
7.63408e-107
1.07874e-106
-5.46829e-106
-1.02647e-104
-1.62566e-104
6.4293e-104
1.46139e-102
4.49747e-102
-2.92279e-102
-1.57567e-100
-1.17824e-99
-9.71364e-100
1.25904e-98
1.86051e-97
3.64585e-97
-6.11633e-97
-1.71386e-95
-1.14211e-94
-9.55406e-95
1.03324e-93
1.57019e-92
4.73528e-92
-5.75488e-93
-9.90729e-91
-1.14662e-89
-2.5231e-89
1.65748e-89
6.72502e-88
6.1715e-87
8.75666e-87
-1.90094e-86
-3.90866e-85
-3.47555e-84
-5.5802e-84
7.3677e-84
1.78768e-82
1.7488e-81
4.27198e-81
-6.52877e-83
-6.54059e-80
-6.95649e-79
-2.95942e-78
-2.31786e-78
1.79089e-77
2.21316e-76
1.54763e-75
2.17141e-75
-2.64289e-75
-5.7793e-74
-5.22701e-73
-4.13937e-72
-3.13746e-71
-2.32663e-70
-1.69646e-69
-1.21612e-68
-8.60328e-68
-5.81167e-67
-1.57725e-66
-9.53212e-67
9.26649e-66
9.19696e-65
6.66414e-64
4.45349e-63
2.87965e-62
1.82585e-61
1.13989e-60
7.01657e-60
4.26053e-59
2.55256e-58
1.5091e-57
8.80511e-57
5.07062e-56
2.88226e-55
1.61727e-54
8.95871e-54
4.89949e-53
2.64564e-52
1.41063e-51
7.42728e-51
3.86196e-50
1.98324e-49
1.0059e-48
5.03943e-48
2.49387e-47
1.21915e-46
5.88785e-46
2.80928e-45
1.32433e-44
6.16853e-44
2.83904e-43
1.29118e-42
5.80296e-42
2.57737e-41
1.13133e-40
4.90797e-40
2.10444e-39
8.91882e-39
3.73622e-38
1.54713e-37
6.33294e-37
2.56262e-36
1.02513e-35
4.05413e-35
1.58511e-34
6.12734e-34
2.34181e-33
8.84928e-33
3.30637e-32
1.2215e-31
4.46215e-31
1.6118e-30
5.75713e-30
2.03346e-29
7.10243e-29
2.45317e-28
8.37928e-28
2.8304e-27
9.45492e-27
3.1235e-26
1.02048e-25
3.29724e-25
1.05362e-24
3.32969e-24
1.04068e-23
3.21682e-23
9.834e-23
2.97325e-22
8.89055e-22
2.6292e-21
7.68979e-21
2.22434e-20
6.36326e-20
1.80032e-19
5.03741e-19
1.39395e-18
3.81478e-18
1.03244e-17
2.76332e-17
7.31408e-17
1.91445e-16
4.95539e-16
1.26839e-15
3.21039e-15
8.03502e-15
1.98851e-14
4.86596e-14
1.17733e-13
2.81647e-13
6.66153e-13
1.55773e-12
3.60117e-12
8.23024e-12
1.85944e-11
4.15274e-11
9.1675e-11
2.00037e-10
4.31415e-10
9.19559e-10
1.93706e-09
4.03237e-09
8.29482e-09
1.68599e-08
3.38594e-08
6.71811e-08
1.31683e-07
2.54974e-07
4.87654e-07
9.21174e-07
1.7185e-06
3.16589e-06
5.75894e-06
1.0343e-05
1.83386e-05
3.20961e-05
5.54447e-05
9.45232e-05
0.000159014
0.000263935
0.000432182
0.000698046
0.00111196
0.00174669
0.00270519
0.00413015
0.00621509
0.00921651
0.0134662
0.0193823
0.0274764
0.0383555
0.0527132
0.0713096
0.0949346
0.124354
0.16024
0.203083
0.253098
0.310136
0.373602
0.44241
0.514977
0.589279
0.662966
0.733533
0.798541
0.855855
0.903861
0.94163
0.968998
0.986571
0.995808
0.99923
0.999937
0.999998
1
1
1
1
1
1
1
1
1
1
1
1
1
1
1
1
1
1
1
1
1
1
1
1
1
1
1
1
1
1
1
1
1
1
1
1
1
1
1
1
1
1
1
1
1
1
1
1
1
1
1
1
1
0.999999
0.999998
0.999997
0.999994
0.99999
0.999982
0.999968
0.999944
0.999905
0.999841
0.999736
0.999567
0.999301
0.998887
0.998252
0.997292
0.995866
0.993779
0.990776
0.986523
0.980603
0.972504
0.961619
0.947254
0.928649
0.905014
0.875584
0.839686
0.796832
0.746805
0.689757
0.626282
0.557469
0.484899
0.410599
0.336918
0.26636
0.201365
0.144066
0.0960769
0.0583242
0.0309717
0.0134121
0.00418412
0.00076772
6.23954e-05
1.62156e-06
9.85535e-09
1.07534e-11
1.72052e-15
1.44552e-19
1.22712e-23
1.05389e-27
9.13446e-32
7.95881e-36
6.94589e-40
6.05689e-44
5.27077e-48
4.57594e-52
3.96469e-56
3.43024e-60
2.96558e-64
2.56331e-68
2.21594e-72
1.91631e-76
1.65783e-80
1.4347e-84
1.24189e-88
1.07512e-92
9.3078e-97
8.0579e-101
6.97541e-105
6.03792e-109
5.22611e-113
4.52325e-117
3.91481e-121
3.38819e-125
2.93242e-129
2.53796e-133
2.19659e-137
1.90114e-141
1.64544e-145
1.42413e-149
1.23258e-153
1.06679e-157
9.23298e-162
7.99101e-166
6.91606e-170
5.98568e-174
5.18044e-178
4.48351e-182
3.88032e-186
3.35827e-190
2.90645e-194
2.51541e-198
2.17697e-202
1.88406e-206
1.63055e-210
1.41115e-214
1.22127e-218
1.05693e-222
9.14705e-227
7.91614e-231
6.85085e-235
5.92889e-239
5.13099e-243
4.44045e-247
3.84283e-251
3.32563e-255
2.87802e-259
2.49066e-263
2.15542e-267
1.86529e-271
1.61422e-275
1.39693e-279
1.20889e-283
1.04615e-287
9.05321e-292
7.83445e-296
6.77974e-300
5.867e-304
5.07711e-308
4.39356e-312
3.80202e-316
3.28751e-320
0
0
0
0
0
0
0
0
0
0
0
0
0
0
0
0
0
0
0
0
0
0
0
0
0
0
0
0
0
0
0
0
0
0
0
0
0
0
0
0
0
0
0
0
0
0
0
0
0
0
0
0
0
0
0
0
0
0
0
0
0
0
0
0
0
0
0
0
0
0
0
0
0
0
0
0
0
0
0
0
0
0
0
0
0
0
0
0
0
0
0
0
0
0
0
0
0
0
0
0
0
0
0
0
0
0
0
0
0
0
0
0
0
0
0
0
0
0
0
0
0
0
0
0
0
0
0
)
;

boundaryField
{
    sides
    {
        type            zeroGradient;
    }
    empty
    {
        type            empty;
    }
}


// ************************************************************************* //
