/*--------------------------------*- C++ -*----------------------------------*\
| =========                 |                                                 |
| \\      /  F ield         | OpenFOAM: The Open Source CFD Toolbox           |
|  \\    /   O peration     | Version:  2312                                  |
|   \\  /    A nd           | Website:  www.openfoam.com                      |
|    \\/     M anipulation  |                                                 |
\*---------------------------------------------------------------------------*/
FoamFile
{
    version     2.0;
    format      ascii;
    arch        "LSB;label=32;scalar=64";
    class       volScalarField;
    location    "4.3";
    object      T;
}
// * * * * * * * * * * * * * * * * * * * * * * * * * * * * * * * * * * * * * //

dimensions      [0 0 0 1 0 0 0];

internalField   nonuniform List<scalar> 
1000
(
0
0
0
0
0
0
0
0
0
0
0
0
0
0
0
0
0
0
0
0
0
0
0
0
0
0
0
0
0
0
0
0
0
0
0
0
0
0
0
0
0
0
0
0
0
0
0
0
0
0
0
0
0
0
0
0
0
0
0
0
0
0
0
0
0
0
0
0
0
0
0
0
0
0
0
0
0
0
0
0
0
0
0
0
0
0
0
0
0
0
0
0
0
0
0
0
0
0
0
0
0
0
0
0
0
0
0
0
0
0
0
0
0
0
0
0
0
0
0
0
0
0
0
0
0
0
0
0
0
0
0
0
0
0
0
0
0
0
0
0
0
0
0
0
0
0
0
0
0
0
0
0
0
0
0
0
0
0
0
0
0
0
0
0
0
0
0
0
0
0
0
0
0
0
0
0
0
0
0
0
0
0
0
0
0
0
0
0
0
0
0
0
0
0
0
0
0
0
0
0
0
0
0
0
0
0
0
0
0
0
0
0
0
0
0
0
0
0
0
0
0
0
0
0
0
0
0
6.42285e-323
7.02067e-321
4.98157e-319
3.48763e-317
2.43103e-315
1.6872e-313
1.16587e-311
8.02117e-310
5.49433e-308
3.74692e-306
2.54393e-304
1.71949e-302
1.15704e-300
7.75071e-299
5.16855e-297
3.43099e-295
2.26718e-293
1.49127e-291
9.76384e-290
6.36311e-288
4.12755e-286
2.66489e-284
1.71245e-282
1.09522e-280
6.97132e-279
4.41621e-277
2.78416e-275
1.74678e-273
1.09061e-271
6.77607e-270
4.18939e-268
2.57738e-266
1.57778e-264
9.61052e-263
5.82458e-261
3.51228e-259
2.10721e-257
1.25779e-255
7.46929e-254
4.41273e-252
2.59346e-250
1.5163e-248
8.81876e-247
5.10196e-245
2.93602e-243
1.68058e-241
9.56812e-240
5.41808e-238
3.05143e-236
1.70917e-234
9.52087e-233
5.2743e-231
2.90559e-229
1.59173e-227
8.67079e-226
4.69661e-224
2.52948e-222
1.35452e-220
7.21159e-219
3.81726e-217
2.00878e-215
1.05089e-213
5.46521e-212
2.82532e-210
1.45186e-208
7.41577e-207
3.76486e-205
1.8997e-203
9.52675e-202
4.74802e-200
2.35164e-198
1.15744e-196
5.66082e-195
2.75102e-193
1.32839e-191
6.37309e-190
3.03775e-188
1.4385e-186
6.76714e-185
3.1624e-183
1.46799e-181
6.7687e-180
3.09985e-178
1.40996e-176
6.36922e-175
2.85728e-173
1.27287e-171
5.63069e-170
2.47319e-168
1.07858e-166
4.67001e-165
2.0074e-163
8.56593e-162
3.6284e-160
1.52556e-158
6.36641e-157
2.63683e-155
1.08385e-153
4.42102e-152
1.78945e-150
7.18675e-149
2.86373e-147
1.13212e-145
4.43996e-144
1.7273e-142
6.6654e-141
2.55108e-139
9.68346e-138
3.64514e-136
1.36064e-134
5.03598e-133
1.84801e-131
6.72309e-130
2.42463e-128
8.66757e-127
3.07107e-125
1.07842e-123
3.75275e-122
1.29402e-120
4.42105e-119
1.49644e-117
5.01773e-116
1.66658e-114
5.48244e-113
1.78612e-111
5.76222e-110
1.84065e-108
5.82112e-107
1.82244e-105
5.64757e-104
1.73215e-102
5.25748e-101
1.57901e-99
4.69202e-98
1.37927e-96
4.01048e-95
1.15333e-93
3.27989e-92
9.22274e-91
2.56388e-89
7.04548e-88
1.91355e-86
5.13597e-85
1.36205e-83
3.56854e-82
9.23514e-81
2.36039e-79
5.95721e-78
1.48439e-76
3.65108e-75
8.8632e-74
2.12313e-72
5.01763e-71
1.1697e-69
2.68917e-68
6.09598e-67
1.36226e-65
3.00037e-64
6.5117e-63
1.39226e-61
2.9319e-60
6.07965e-59
1.24108e-57
2.49348e-56
4.92921e-55
9.58515e-54
1.83294e-52
3.44585e-51
6.36671e-50
1.15576e-48
2.0607e-47
3.60754e-46
6.19878e-45
1.04506e-43
1.72805e-42
2.80145e-41
4.45085e-40
6.92715e-39
1.05567e-37
1.57458e-36
2.29751e-35
3.27785e-34
4.57018e-33
6.2238e-32
8.27382e-31
1.07307e-29
1.35688e-28
1.67174e-27
2.00541e-26
2.34062e-25
2.6559e-24
2.9275e-23
3.13191e-22
3.24903e-21
3.26519e-20
3.17563e-19
2.98565e-18
2.71037e-17
2.37279e-16
2.00054e-15
1.62208e-14
1.26288e-13
9.42532e-13
6.73123e-12
4.59104e-11
2.9842e-10
1.84436e-09
1.08111e-08
5.99388e-08
3.13359e-07
1.53966e-06
7.08371e-06
3.03934e-05
0.000121066
0.000445479
0.00150591
0.0046486
0.0130186
0.0328508
0.0741804
0.14897
0.264898
0.416783
0.583217
0.735102
0.85103
0.92582
0.967149
0.986981
0.995351
0.998494
0.999555
0.999879
0.99997
0.999993
0.999998
1
1
1
1
1
1
1
1
1
1
1
1
1
1
1
1
1
1
1
1
1
1
1
1
1
1
1
1
1
1
1
1
1
1
1
1
1
1
1
1
1
1
1
1
1
1
1
1
1
1
1
1
1
1
1
1
1
1
1
1
1
1
1
1
1
1
1
1
1
1
1
1
1
1
0.999998
0.999993
0.99997
0.999879
0.999555
0.998494
0.995351
0.986981
0.967149
0.92582
0.85103
0.735102
0.583217
0.416783
0.264898
0.14897
0.0741804
0.0328508
0.0130186
0.0046486
0.00150591
0.000445479
0.000121066
3.03934e-05
7.08371e-06
1.53966e-06
3.13359e-07
5.99388e-08
1.08111e-08
1.84436e-09
2.9842e-10
4.59104e-11
6.73123e-12
9.42532e-13
1.26288e-13
1.62208e-14
2.00054e-15
2.37279e-16
2.71037e-17
2.98565e-18
3.17563e-19
3.26519e-20
3.24903e-21
3.13191e-22
2.9275e-23
2.6559e-24
2.34062e-25
2.00541e-26
1.67174e-27
1.35688e-28
1.07307e-29
8.27382e-31
6.2238e-32
4.57018e-33
3.27785e-34
2.29751e-35
1.57458e-36
1.05567e-37
6.92715e-39
4.45085e-40
2.80145e-41
1.72805e-42
1.04506e-43
6.19878e-45
3.60754e-46
2.0607e-47
1.15576e-48
6.36671e-50
3.44585e-51
1.83294e-52
9.58515e-54
4.92921e-55
2.49348e-56
1.24108e-57
6.07965e-59
2.9319e-60
1.39226e-61
6.5117e-63
3.00037e-64
1.36226e-65
6.09598e-67
2.68917e-68
1.1697e-69
5.01763e-71
2.12313e-72
8.8632e-74
3.65108e-75
1.48439e-76
5.95721e-78
2.36039e-79
9.23514e-81
3.56854e-82
1.36205e-83
5.13597e-85
1.91355e-86
7.04548e-88
2.56388e-89
9.22274e-91
3.27989e-92
1.15333e-93
4.01048e-95
1.37927e-96
4.69202e-98
1.57901e-99
5.25748e-101
1.73215e-102
5.64757e-104
1.82244e-105
5.82112e-107
1.84065e-108
5.76222e-110
1.78612e-111
5.48244e-113
1.66658e-114
5.01773e-116
1.49644e-117
4.42105e-119
1.29402e-120
3.75275e-122
1.07842e-123
3.07107e-125
8.66757e-127
2.42463e-128
6.72309e-130
1.84801e-131
5.03598e-133
1.36064e-134
3.64514e-136
9.68346e-138
2.55108e-139
6.6654e-141
1.7273e-142
4.43996e-144
1.13212e-145
2.86373e-147
7.18675e-149
1.78945e-150
4.42102e-152
1.08385e-153
2.63683e-155
6.36641e-157
1.52556e-158
3.6284e-160
8.56593e-162
2.0074e-163
4.67001e-165
1.07858e-166
2.47319e-168
5.63069e-170
1.27287e-171
2.85728e-173
6.36922e-175
1.40996e-176
3.09985e-178
6.7687e-180
1.46799e-181
3.1624e-183
6.76714e-185
1.4385e-186
3.03775e-188
6.37309e-190
1.32839e-191
2.75102e-193
5.66082e-195
1.15744e-196
2.35164e-198
4.74802e-200
9.52675e-202
1.8997e-203
3.76486e-205
7.41577e-207
1.45186e-208
2.82532e-210
5.46521e-212
1.05089e-213
2.00878e-215
3.81726e-217
7.21159e-219
1.35452e-220
2.52948e-222
4.69661e-224
8.67079e-226
1.59173e-227
2.90559e-229
5.2743e-231
9.52087e-233
1.70917e-234
3.05143e-236
5.41808e-238
9.56812e-240
1.68058e-241
2.93602e-243
5.10196e-245
8.81876e-247
1.5163e-248
2.59346e-250
4.41273e-252
7.46929e-254
1.25779e-255
2.10721e-257
3.51228e-259
5.82458e-261
9.61052e-263
1.57778e-264
2.57738e-266
4.18939e-268
6.77607e-270
1.09061e-271
1.74678e-273
2.78416e-275
4.41621e-277
6.97132e-279
1.09522e-280
1.71245e-282
2.66489e-284
4.12755e-286
6.36311e-288
9.76384e-290
1.49127e-291
2.26718e-293
3.43099e-295
5.16855e-297
7.75071e-299
1.15704e-300
1.71949e-302
2.54393e-304
3.74692e-306
5.49433e-308
8.02117e-310
1.16587e-311
1.6872e-313
2.43103e-315
3.48763e-317
4.98157e-319
7.02067e-321
6.42285e-323
0
0
0
0
0
0
0
0
0
0
0
0
0
0
0
0
0
0
0
0
0
0
0
0
0
0
0
0
0
0
0
0
0
0
0
0
0
0
0
0
0
0
0
0
0
0
0
0
0
0
0
0
0
0
0
0
0
0
0
0
0
0
0
0
0
0
0
0
0
0
0
0
0
0
0
0
0
0
0
0
0
0
0
0
0
0
0
0
0
0
0
0
0
0
0
0
0
0
0
0
0
0
0
0
0
0
0
0
0
0
0
0
0
0
0
0
0
0
0
0
0
0
0
0
0
0
0
0
0
0
0
0
0
0
0
0
0
0
0
0
0
0
0
0
0
0
0
0
0
0
0
0
0
0
0
0
0
0
0
0
0
0
0
0
0
0
0
0
0
0
0
0
0
0
0
0
0
0
0
0
0
0
0
0
0
0
0
0
0
0
0
0
0
0
0
0
0
0
0
0
0
0
0
0
0
0
0
0
0
0
0
0
0
0
0
0
0
0
0
0
0
0
0
0
0
0
0
)
;

boundaryField
{
    sides
    {
        type            zeroGradient;
    }
    empty
    {
        type            empty;
    }
}


// ************************************************************************* //
