/*--------------------------------*- C++ -*----------------------------------*\
| =========                 |                                                 |
| \\      /  F ield         | OpenFOAM: The Open Source CFD Toolbox           |
|  \\    /   O peration     | Version:  2312                                  |
|   \\  /    A nd           | Website:  www.openfoam.com                      |
|    \\/     M anipulation  |                                                 |
\*---------------------------------------------------------------------------*/
FoamFile
{
    version     2.0;
    format      ascii;
    arch        "LSB;label=32;scalar=64";
    class       volScalarField;
    location    "4.1";
    object      T;
}
// * * * * * * * * * * * * * * * * * * * * * * * * * * * * * * * * * * * * * //

dimensions      [0 0 0 1 0 0 0];

internalField   nonuniform List<scalar> 
1000
(
0
0
0
0
0
0
0
0
0
0
0
0
0
0
0
0
0
0
0
0
0
0
0
0
0
0
0
0
0
0
0
0
0
0
0
0
0
0
0
0
0
0
0
0
0
0
0
0
0
0
0
0
0
0
0
0
0
0
0
0
0
0
0
0
0
0
0
0
0
0
0
0
0
0
0
0
0
0
0
0
0
0
0
0
0
0
0
0
0
0
0
0
0
0
0
0
0
0
0
0
0
0
0
0
0
0
0
0
0
0
0
0
0
0
0
0
0
0
0
0
0
0
0
0
0
0
0
0
0
0
0
0
0
0
0
0
0
0
0
0
0
0
0
0
0
0
0
0
0
0
0
0
0
0
0
0
0
0
0
0
0
0
0
0
0
0
0
0
0
0
0
0
0
0
0
0
0
0
0
0
0
0
0
0
0
0
0
0
0
0
0
0
0
0
0
0
0
0
0
0
0
0
0
0
0
0
0
0
0
0
0
0
0
0
0
0
0
0
0
0
0
0
0
0
0
0
0
0
0
0
0
0
0
0
0
0
0
0
0
0
0
0
0
0
0
0
0
0
0
0
0
0
0
0
0
0
0
0
0
0
0
0
0
0
0
0
0
0
0
0
0
0
0
0
0
0
0
0
0
0
0
0
0
0
0
0
0
0
0
0
0
0
0
0
0
0
0
0
0
0
0
0
0
0
0
0
0
0
0
0
0
0
0
0
0
0
0
0
0
0
0
0
0
0
0
0
0
0
0
0
0
0
0
0
0
0
0
0
0
0
0
0
0
0
0
0
0
0
0
0
0
0
0
0
0
0
0
0
0
0
0
0
0
0
0
0
0
0
0
0
0
0
0
0
0
0
0
0
0
0
0
0
0
0
0
0
0
0
0
0
0
0
0
0
0
0
0
0
0
0
0
0
0
0
0
0
0
0
0
0
0
0
0
0
0
0
0
0
0
0
0
0
0
0
0
0
0
0
0
0
0
0
0
0
0
0
0
0
0
0
0
0
0
0
0
0
0
0
0
0
8.36782e-118
2.19161e-115
2.87075e-113
2.50753e-111
1.64313e-109
8.61585e-108
3.76578e-106
1.41116e-104
4.62825e-103
1.34964e-101
3.543e-100
8.45754e-99
1.85114e-97
3.74098e-96
7.02195e-95
1.23049e-93
2.02201e-92
3.12802e-91
4.57134e-90
6.33066e-89
8.33085e-88
1.04437e-86
1.25004e-85
1.43154e-84
1.57148e-83
1.65653e-82
1.67945e-81
1.64005e-80
1.54477e-79
1.40522e-78
1.23598e-77
1.05233e-76
8.6819e-76
6.94747e-75
5.39741e-74
4.07443e-73
2.99107e-72
2.13697e-71
1.48697e-70
1.00841e-69
6.66941e-69
4.30454e-68
2.71277e-67
1.6703e-66
1.00531e-65
5.91783e-65
3.40871e-64
1.92216e-63
1.0616e-62
5.74497e-62
3.04757e-61
1.58538e-60
8.0908e-60
4.0522e-59
1.99243e-58
9.62104e-58
4.56402e-57
2.12764e-56
9.75013e-56
4.39351e-55
1.94727e-54
8.49132e-54
3.64398e-53
1.53936e-52
6.40295e-52
2.62301e-51
1.05853e-50
4.20907e-50
1.64949e-49
6.37218e-49
2.42712e-48
9.1169e-48
3.37787e-47
1.2347e-46
4.45335e-46
1.58524e-45
5.57015e-45
1.9323e-44
6.61902e-44
2.23921e-43
7.48249e-43
2.47012e-42
8.05702e-42
2.59706e-41
8.27377e-41
2.60555e-40
8.11207e-40
2.49723e-39
7.60214e-39
2.28887e-38
6.81663e-38
2.00833e-37
5.85421e-37
1.68859e-36
4.82001e-36
1.36174e-35
3.80809e-35
1.05423e-34
2.88953e-34
7.84196e-34
2.10753e-33
5.60943e-33
1.47877e-32
3.86156e-32
9.98953e-32
2.56029e-31
6.50178e-31
1.63612e-30
4.08015e-30
1.00844e-29
2.47046e-29
5.99917e-29
1.4442e-28
3.44685e-28
8.15658e-28
1.9139e-27
4.45337e-27
1.02766e-26
2.35197e-26
5.33911e-26
1.20224e-25
2.68551e-25
5.95126e-25
1.30847e-24
2.85446e-24
6.17895e-24
1.32729e-23
2.82945e-23
5.98624e-23
1.25703e-22
2.62003e-22
5.42075e-22
1.11335e-21
2.27011e-21
4.59548e-21
9.23652e-21
1.84333e-20
3.6529e-20
7.18847e-20
1.40483e-19
2.72659e-19
5.25591e-19
1.00631e-18
1.91377e-18
3.61533e-18
6.78459e-18
1.26485e-17
2.3427e-17
4.31096e-17
7.88193e-17
1.4319e-16
2.58483e-16
4.63674e-16
8.26555e-16
1.4643e-15
2.57812e-15
4.5114e-15
7.84646e-15
1.35646e-14
2.33093e-14
3.98161e-14
6.76101e-14
1.14132e-13
1.91539e-13
3.19584e-13
5.30155e-13
8.74438e-13
1.4341e-12
2.33867e-12
3.79242e-12
6.11553e-12
9.80706e-12
1.56404e-11
2.48069e-11
3.91318e-11
6.13954e-11
9.58085e-11
1.48713e-10
2.29607e-10
3.52637e-10
5.38755e-10
8.18818e-10
1.23803e-09
1.86225e-09
2.78689e-09
4.14945e-09
6.14701e-09
9.06051e-09
1.32883e-08
1.93923e-08
2.81607e-08
4.06936e-08
5.8518e-08
8.37424e-08
1.19264e-07
1.69039e-07
2.38451e-07
3.34775e-07
4.67802e-07
6.50637e-07
9.0073e-07
1.2412e-06
1.70252e-06
2.32465e-06
3.15974e-06
4.27545e-06
5.75921e-06
7.72336e-06
1.03115e-05
1.37064e-05
1.81393e-05
2.39015e-05
3.1358e-05
4.09639e-05
5.32839e-05
6.9015e-05
8.90131e-05
0.000114325
0.000146221
0.000186243
0.000236241
0.000298436
0.000375472
0.000470484
0.00058717
0.000729871
0.000903655
0.00111441
0.00136894
0.00167506
0.00204171
0.00247907
0.00299864
0.00361336
0.00433773
0.00518786
0.00618159
0.00733854
0.00868017
0.0102298
0.0120126
0.0140558
0.016388
0.0190399
0.0220437
0.0254328
0.0292422
0.0335075
0.0382652
0.043552
0.0494046
0.0558591
0.062951
0.0707141
0.0791804
0.0883796
0.0983383
0.10908
0.120623
0.132983
0.14617
0.160189
0.175038
0.190709
0.207192
0.224464
0.242501
0.26127
0.280732
0.300843
0.321552
0.342802
0.364534
0.386681
0.409173
0.43194
0.454905
0.477993
0.501124
0.524223
0.547212
0.570014
0.592557
0.61477
0.636585
0.65794
0.678776
0.699038
0.71868
0.737658
0.755935
0.773482
0.790274
0.806291
0.821521
0.835957
0.849597
0.862445
0.874508
0.885799
0.896336
0.906137
0.915226
0.923629
0.931373
0.938489
0.945007
0.950959
0.956378
0.961297
0.965747
0.96976
0.973369
0.976604
0.979493
0.982064
0.984344
0.986358
0.988128
0.989677
0.991022
0.992183
0.993175
0.994011
0.994703
0.995261
0.995692
0.996003
0.996196
0.996273
0.996234
0.996076
0.995793
0.995379
0.994824
0.994117
0.993243
0.992186
0.990929
0.989449
0.987724
0.985729
0.983437
0.980818
0.977841
0.974474
0.970682
0.966432
0.961686
0.956409
0.950564
0.944116
0.937029
0.92927
0.920807
0.911611
0.901654
0.890914
0.879372
0.867013
0.853827
0.839809
0.824961
0.809289
0.792807
0.775535
0.757498
0.73873
0.719267
0.699157
0.678448
0.657198
0.635466
0.613319
0.590826
0.56806
0.545095
0.522007
0.498876
0.475777
0.452788
0.429986
0.407443
0.38523
0.363415
0.34206
0.321224
0.300962
0.28132
0.262342
0.244065
0.226518
0.209726
0.193709
0.178479
0.164043
0.150403
0.137555
0.125492
0.1142
0.103663
0.0938618
0.0847723
0.0763689
0.0686237
0.0615068
0.0549873
0.049033
0.0436114
0.0386897
0.0342352
0.0302156
0.0265993
0.0233554
0.0204542
0.0178672
0.015567
0.013528
0.0117257
0.0101372
0.00874131
0.00751817
0.0064495
0.00551846
0.00470966
0.00400904
0.00340386
0.0028826
0.0024349
0.00205145
0.00172395
0.00144503
0.00120813
0.00100749
0.000838029
0.000695294
0.000575402
0.000474974
0.000391079
0.000321187
0.000263118
0.000215004
0.000175245
0.000142479
0.000115549
9.34733e-05
7.54262e-05
6.07114e-05
4.87455e-05
3.90406e-05
3.11902e-05
2.48566e-05
1.97601e-05
1.56698e-05
1.23956e-05
9.7814e-06
7.69959e-06
6.04602e-06
4.73597e-06
3.70074e-06
2.88476e-06
2.24324e-06
1.74015e-06
1.34663e-06
1.03959e-06
8.00619e-07
6.15102e-07
4.71441e-07
3.60469e-07
2.74961e-07
2.09237e-07
1.58846e-07
1.20304e-07
9.08992e-08
6.85193e-08
5.1528e-08
3.86592e-08
2.89364e-08
2.16083e-08
1.60984e-08
1.19656e-08
8.8731e-09
6.56465e-09
4.84555e-09
3.5684e-09
2.62183e-09
1.92194e-09
1.40566e-09
1.02572e-09
7.46767e-10
5.42445e-10
3.93134e-10
2.84278e-10
2.051e-10
1.47642e-10
1.06042e-10
7.59929e-11
5.43371e-11
3.87661e-11
2.75956e-11
1.96004e-11
1.38908e-11
9.8227e-12
6.93069e-12
4.87941e-12
3.42773e-12
2.40267e-12
1.68048e-12
1.17281e-12
8.16729e-13
5.67527e-13
3.93511e-13
2.72264e-13
1.8797e-13
1.29495e-13
8.90204e-14
6.10657e-14
4.18003e-14
2.85521e-14
1.94614e-14
1.32371e-14
8.9845e-15
6.08528e-15
4.11295e-15
2.77407e-15
1.86712e-15
1.25407e-15
8.40552e-16
5.62221e-16
3.75275e-16
2.49974e-16
1.66167e-16
1.1023e-16
7.29736e-17
4.82105e-17
3.17856e-17
2.09138e-17
1.37326e-17
8.99898e-18
5.8851e-18
3.84094e-18
2.50176e-18
1.62623e-18
1.05499e-18
6.83036e-19
4.4134e-19
2.84603e-19
1.83164e-19
1.17648e-19
7.54164e-20
)
;

boundaryField
{
    sides
    {
        type            zeroGradient;
    }
    empty
    {
        type            empty;
    }
}


// ************************************************************************* //
