/*--------------------------------*- C++ -*----------------------------------*\
| =========                 |                                                 |
| \\      /  F ield         | OpenFOAM: The Open Source CFD Toolbox           |
|  \\    /   O peration     | Version:  2312                                  |
|   \\  /    A nd           | Website:  www.openfoam.com                      |
|    \\/     M anipulation  |                                                 |
\*---------------------------------------------------------------------------*/
FoamFile
{
    version     2.0;
    format      ascii;
    arch        "LSB;label=32;scalar=64";
    class       volScalarField;
    location    "4.6";
    object      T;
}
// * * * * * * * * * * * * * * * * * * * * * * * * * * * * * * * * * * * * * //

dimensions      [0 0 0 1 0 0 0];

internalField   nonuniform List<scalar> 
1000
(
2.79858e-06
2.80253e-06
2.81341e-06
2.83124e-06
2.85606e-06
2.88791e-06
2.92686e-06
2.973e-06
3.02641e-06
3.0872e-06
3.15551e-06
3.23145e-06
3.3152e-06
3.40693e-06
3.5068e-06
3.61504e-06
3.73185e-06
3.85746e-06
3.99215e-06
4.13616e-06
4.28979e-06
4.45335e-06
4.62715e-06
4.81155e-06
5.0069e-06
5.21359e-06
5.43203e-06
5.66264e-06
5.90586e-06
6.16218e-06
6.43209e-06
6.7161e-06
7.01476e-06
7.32864e-06
7.65833e-06
8.00447e-06
8.3677e-06
8.74871e-06
9.1482e-06
9.56693e-06
1.00057e-05
1.04652e-05
1.09464e-05
1.14502e-05
1.19774e-05
1.2529e-05
1.31061e-05
1.37095e-05
1.43405e-05
1.50002e-05
1.56896e-05
1.64101e-05
1.71628e-05
1.79492e-05
1.87705e-05
1.96281e-05
2.05237e-05
2.14585e-05
2.24344e-05
2.34528e-05
2.45156e-05
2.56244e-05
2.67812e-05
2.79878e-05
2.92462e-05
3.05585e-05
3.19269e-05
3.33534e-05
3.48405e-05
3.63905e-05
3.80059e-05
3.96892e-05
4.1443e-05
4.32702e-05
4.51735e-05
4.71559e-05
4.92204e-05
5.13702e-05
5.36086e-05
5.5939e-05
5.83648e-05
6.08896e-05
6.35173e-05
6.62517e-05
6.90967e-05
7.20567e-05
7.51358e-05
7.83384e-05
8.16693e-05
8.51331e-05
8.87347e-05
9.24792e-05
9.63718e-05
0.000100418
0.000104623
0.000108993
0.000113534
0.000118253
0.000123154
0.000128246
0.000133534
0.000139026
0.000144728
0.00015065
0.000156797
0.000163178
0.000169802
0.000176676
0.00018381
0.000191211
0.000198891
0.000206857
0.000215121
0.000223691
0.000232579
0.000241794
0.00025135
0.000261255
0.000271523
0.000282166
0.000293195
0.000304625
0.000316467
0.000328735
0.000341444
0.000354607
0.000368241
0.000382358
0.000396976
0.000412111
0.000427778
0.000443995
0.00046078
0.00047815
0.000496123
0.000514719
0.000533956
0.000553856
0.000574438
0.000595724
0.000617735
0.000640493
0.000664021
0.000688343
0.000713482
0.000739463
0.000766311
0.000794052
0.000822712
0.00085232
0.000882902
0.000914487
0.000947105
0.000980785
0.00101556
0.00105146
0.00108851
0.00112676
0.00116623
0.00120695
0.00124898
0.00129233
0.00133705
0.00138317
0.00143074
0.00147979
0.00153037
0.00158251
0.00163626
0.00169167
0.00174877
0.00180761
0.00186824
0.00193071
0.00199506
0.00206134
0.0021296
0.00219991
0.00227229
0.00234683
0.00242355
0.00250253
0.00258382
0.00266747
0.00275355
0.00284212
0.00293324
0.00302696
0.00312336
0.0032225
0.00332445
0.00342927
0.00353704
0.00364782
0.00376168
0.0038787
0.00399895
0.00412251
0.00424945
0.00437985
0.00451379
0.00465135
0.00479261
0.00493766
0.00508658
0.00523945
0.00539637
0.00555741
0.00572268
0.00589227
0.00606626
0.00624474
0.00642783
0.0066156
0.00680817
0.00700563
0.00720807
0.00741562
0.00762835
0.00784639
0.00806984
0.00829881
0.00853341
0.00877374
0.00901991
0.00927206
0.00953027
0.00979469
0.0100654
0.0103426
0.0106263
0.0109166
0.0112138
0.0115179
0.011829
0.0121473
0.0124729
0.0128059
0.0131464
0.0134947
0.0138507
0.0142147
0.0145868
0.0149671
0.0153558
0.0157529
0.0161587
0.0165732
0.0169967
0.0174292
0.0178709
0.0183219
0.0187824
0.0192526
0.0197324
0.0202222
0.0207221
0.0212321
0.0217525
0.0222834
0.0228249
0.0233773
0.0239405
0.0245149
0.0251004
0.0256974
0.0263059
0.026926
0.027558
0.028202
0.0288581
0.0295265
0.0302073
0.0309006
0.0316067
0.0323256
0.0330575
0.0338026
0.034561
0.0353328
0.0361183
0.0369174
0.0377304
0.0385574
0.0393985
0.0402539
0.0411238
0.0420082
0.0429073
0.0438211
0.04475
0.0456939
0.046653
0.0476274
0.0486173
0.0496227
0.0506438
0.0516807
0.0527335
0.0538023
0.0548873
0.0559885
0.057106
0.0582399
0.0593904
0.0605575
0.0617413
0.0629419
0.0641594
0.0653939
0.0666453
0.0679139
0.0691997
0.0705027
0.071823
0.0731607
0.0745158
0.0758883
0.0772784
0.0786859
0.0801111
0.0815539
0.0830143
0.0844923
0.0859881
0.0875015
0.0890325
0.0905813
0.0921478
0.0937319
0.0953337
0.0969531
0.0985901
0.100245
0.101917
0.103606
0.105313
0.107038
0.108779
0.110538
0.112315
0.114108
0.115918
0.117745
0.119589
0.12145
0.123327
0.125221
0.127131
0.129057
0.130999
0.132957
0.134931
0.13692
0.138925
0.140945
0.142981
0.145031
0.147095
0.149174
0.151268
0.153375
0.155496
0.157631
0.159779
0.16194
0.164114
0.166301
0.168499
0.17071
0.172933
0.175167
0.177412
0.179667
0.181934
0.18421
0.186497
0.188792
0.191097
0.193411
0.195733
0.198064
0.200402
0.202747
0.2051
0.207459
0.209824
0.212195
0.214571
0.216952
0.219338
0.221728
0.224122
0.226519
0.228918
0.23132
0.233724
0.236129
0.238536
0.240942
0.243349
0.245756
0.248161
0.250565
0.252967
0.255366
0.257763
0.260156
0.262545
0.26493
0.26731
0.269684
0.272053
0.274415
0.276769
0.279117
0.281456
0.283786
0.286107
0.288419
0.29072
0.29301
0.295289
0.297556
0.299811
0.302053
0.304281
0.306495
0.308695
0.310879
0.313048
0.315201
0.317336
0.319455
0.321555
0.323638
0.325701
0.327745
0.329769
0.331772
0.333755
0.335716
0.337655
0.339571
0.341464
0.343334
0.345179
0.347
0.348796
0.350567
0.352311
0.354029
0.35572
0.357384
0.35902
0.360627
0.362205
0.363755
0.365274
0.366764
0.368223
0.369651
0.371048
0.372413
0.373747
0.375047
0.376315
0.377549
0.37875
0.379918
0.38105
0.382149
0.383212
0.38424
0.385233
0.38619
0.387111
0.387996
0.388844
0.389655
0.390429
0.391166
0.391865
0.392527
0.393151
0.393737
0.394284
0.394793
0.395263
0.395695
0.396088
0.396442
0.396757
0.397032
0.397269
0.397466
0.397624
0.397742
0.397821
0.397861
0.397861
0.397821
0.397742
0.397624
0.397466
0.397269
0.397032
0.396757
0.396442
0.396088
0.395695
0.395263
0.394793
0.394284
0.393737
0.393151
0.392527
0.391865
0.391166
0.390429
0.389655
0.388844
0.387996
0.387111
0.38619
0.385233
0.38424
0.383212
0.382149
0.38105
0.379918
0.37875
0.377549
0.376315
0.375047
0.373747
0.372413
0.371048
0.369651
0.368223
0.366764
0.365274
0.363755
0.362205
0.360627
0.35902
0.357384
0.35572
0.354029
0.352311
0.350567
0.348796
0.347
0.345179
0.343334
0.341464
0.339571
0.337655
0.335716
0.333755
0.331772
0.329769
0.327745
0.325701
0.323638
0.321555
0.319455
0.317336
0.315201
0.313048
0.310879
0.308695
0.306495
0.304281
0.302053
0.299811
0.297556
0.295289
0.29301
0.29072
0.288419
0.286107
0.283786
0.281456
0.279117
0.276769
0.274415
0.272053
0.269684
0.26731
0.26493
0.262545
0.260156
0.257763
0.255366
0.252967
0.250565
0.248161
0.245756
0.243349
0.240942
0.238536
0.236129
0.233724
0.23132
0.228918
0.226519
0.224122
0.221728
0.219338
0.216952
0.214571
0.212195
0.209824
0.207459
0.2051
0.202747
0.200402
0.198064
0.195733
0.193411
0.191097
0.188792
0.186497
0.18421
0.181934
0.179667
0.177412
0.175167
0.172933
0.17071
0.168499
0.166301
0.164114
0.16194
0.159779
0.157631
0.155496
0.153375
0.151268
0.149174
0.147095
0.145031
0.142981
0.140945
0.138925
0.13692
0.134931
0.132957
0.130999
0.129057
0.127131
0.125221
0.123327
0.12145
0.119589
0.117745
0.115918
0.114108
0.112315
0.110538
0.108779
0.107038
0.105313
0.103606
0.101917
0.100245
0.0985901
0.0969531
0.0953337
0.0937319
0.0921478
0.0905813
0.0890325
0.0875015
0.0859881
0.0844923
0.0830143
0.0815539
0.0801111
0.0786859
0.0772784
0.0758883
0.0745158
0.0731607
0.071823
0.0705027
0.0691997
0.0679139
0.0666453
0.0653939
0.0641594
0.0629419
0.0617413
0.0605575
0.0593904
0.0582399
0.057106
0.0559885
0.0548873
0.0538023
0.0527335
0.0516807
0.0506438
0.0496227
0.0486173
0.0476274
0.046653
0.0456939
0.04475
0.0438211
0.0429073
0.0420082
0.0411238
0.0402539
0.0393985
0.0385574
0.0377304
0.0369174
0.0361183
0.0353328
0.034561
0.0338026
0.0330575
0.0323256
0.0316067
0.0309006
0.0302073
0.0295265
0.0288581
0.028202
0.027558
0.026926
0.0263059
0.0256974
0.0251004
0.0245149
0.0239405
0.0233773
0.0228249
0.0222834
0.0217525
0.0212321
0.0207221
0.0202222
0.0197324
0.0192526
0.0187824
0.0183219
0.0178709
0.0174292
0.0169967
0.0165732
0.0161587
0.0157529
0.0153558
0.0149671
0.0145868
0.0142147
0.0138507
0.0134947
0.0131464
0.0128059
0.0124729
0.0121473
0.011829
0.0115179
0.0112138
0.0109166
0.0106263
0.0103426
0.0100654
0.00979469
0.00953027
0.00927206
0.00901991
0.00877374
0.00853341
0.00829881
0.00806984
0.00784639
0.00762835
0.00741562
0.00720807
0.00700563
0.00680817
0.0066156
0.00642783
0.00624474
0.00606626
0.00589227
0.00572268
0.00555741
0.00539637
0.00523945
0.00508658
0.00493766
0.00479261
0.00465135
0.00451379
0.00437985
0.00424945
0.00412251
0.00399895
0.0038787
0.00376168
0.00364782
0.00353704
0.00342927
0.00332445
0.0032225
0.00312336
0.00302696
0.00293324
0.00284212
0.00275355
0.00266747
0.00258382
0.00250253
0.00242355
0.00234683
0.00227229
0.00219991
0.0021296
0.00206134
0.00199506
0.00193071
0.00186824
0.00180761
0.00174877
0.00169167
0.00163626
0.00158251
0.00153037
0.00147979
0.00143074
0.00138317
0.00133705
0.00129233
0.00124898
0.00120695
0.00116623
0.00112676
0.00108851
0.00105146
0.00101556
0.000980785
0.000947105
0.000914487
0.000882902
0.00085232
0.000822712
0.000794052
0.000766311
0.000739463
0.000713482
0.000688343
0.000664021
0.000640493
0.000617735
0.000595724
0.000574438
0.000553856
0.000533956
0.000514719
0.000496123
0.00047815
0.00046078
0.000443995
0.000427778
0.000412111
0.000396976
0.000382358
0.000368241
0.000354607
0.000341444
0.000328735
0.000316467
0.000304625
0.000293195
0.000282166
0.000271523
0.000261255
0.00025135
0.000241794
0.000232579
0.000223691
0.000215121
0.000206857
0.000198891
0.000191211
0.00018381
0.000176676
0.000169802
0.000163178
0.000156797
0.00015065
0.000144728
0.000139026
0.000133534
0.000128246
0.000123154
0.000118253
0.000113534
0.000108993
0.000104623
0.000100418
9.63718e-05
9.24792e-05
8.87347e-05
8.51331e-05
8.16693e-05
7.83384e-05
7.51358e-05
7.20567e-05
6.90967e-05
6.62517e-05
6.35173e-05
6.08896e-05
5.83648e-05
5.5939e-05
5.36086e-05
5.13702e-05
4.92204e-05
4.71559e-05
4.51735e-05
4.32702e-05
4.1443e-05
3.96892e-05
3.80059e-05
3.63905e-05
3.48405e-05
3.33534e-05
3.19269e-05
3.05585e-05
2.92462e-05
2.79878e-05
2.67812e-05
2.56244e-05
2.45156e-05
2.34528e-05
2.24344e-05
2.14585e-05
2.05237e-05
1.96281e-05
1.87705e-05
1.79492e-05
1.71628e-05
1.64101e-05
1.56896e-05
1.50002e-05
1.43405e-05
1.37095e-05
1.31061e-05
1.2529e-05
1.19774e-05
1.14502e-05
1.09464e-05
1.04652e-05
1.00057e-05
9.56693e-06
9.1482e-06
8.74871e-06
8.3677e-06
8.00447e-06
7.65833e-06
7.32864e-06
7.01476e-06
6.7161e-06
6.43209e-06
6.16218e-06
5.90586e-06
5.66264e-06
5.43203e-06
5.21359e-06
5.0069e-06
4.81155e-06
4.62715e-06
4.45335e-06
4.28979e-06
4.13616e-06
3.99215e-06
3.85746e-06
3.73185e-06
3.61504e-06
3.5068e-06
3.40693e-06
3.3152e-06
3.23145e-06
3.15551e-06
3.0872e-06
3.02641e-06
2.973e-06
2.92686e-06
2.88791e-06
2.85606e-06
2.83124e-06
2.81341e-06
2.80253e-06
2.79858e-06
)
;

boundaryField
{
    sides
    {
        type            zeroGradient;
    }
    empty
    {
        type            empty;
    }
}


// ************************************************************************* //
