/*--------------------------------*- C++ -*----------------------------------*\
| =========                 |                                                 |
| \\      /  F ield         | OpenFOAM: The Open Source CFD Toolbox           |
|  \\    /   O peration     | Version:  2312                                  |
|   \\  /    A nd           | Website:  www.openfoam.com                      |
|    \\/     M anipulation  |                                                 |
\*---------------------------------------------------------------------------*/
FoamFile
{
    version     2.0;
    format      ascii;
    arch        "LSB;label=32;scalar=64";
    class       volScalarField;
    location    "3.3";
    object      T;
}
// * * * * * * * * * * * * * * * * * * * * * * * * * * * * * * * * * * * * * //

dimensions      [0 0 0 1 0 0 0];

internalField   nonuniform List<scalar> 
1000
(
3.25307e-08
3.26188e-08
3.28613e-08
3.32592e-08
3.38143e-08
3.45287e-08
3.54056e-08
3.64483e-08
3.76614e-08
3.90498e-08
4.06192e-08
4.2376e-08
4.43275e-08
4.64816e-08
4.88472e-08
5.14338e-08
5.4252e-08
5.73131e-08
6.06296e-08
6.42148e-08
6.8083e-08
7.22498e-08
7.67316e-08
8.15464e-08
8.67132e-08
9.22522e-08
9.81853e-08
1.04536e-07
1.11328e-07
1.18589e-07
1.26345e-07
1.34628e-07
1.43469e-07
1.52902e-07
1.62961e-07
1.73686e-07
1.85117e-07
1.97296e-07
2.10268e-07
2.24082e-07
2.38789e-07
2.54443e-07
2.71101e-07
2.88823e-07
3.07673e-07
3.2772e-07
3.49035e-07
3.71694e-07
3.95778e-07
4.21371e-07
4.48563e-07
4.7745e-07
5.08131e-07
5.40713e-07
5.75307e-07
6.12033e-07
6.51015e-07
6.92384e-07
7.36281e-07
7.82852e-07
8.32253e-07
8.84647e-07
9.40208e-07
9.99116e-07
1.06157e-06
1.12776e-06
1.19791e-06
1.27224e-06
1.35099e-06
1.43441e-06
1.52276e-06
1.61632e-06
1.71539e-06
1.82026e-06
1.93127e-06
2.04875e-06
2.17307e-06
2.3046e-06
2.44374e-06
2.5909e-06
2.74654e-06
2.9111e-06
3.08507e-06
3.26898e-06
3.46334e-06
3.66873e-06
3.88575e-06
4.115e-06
4.35716e-06
4.6129e-06
4.88294e-06
5.16805e-06
5.46902e-06
5.78667e-06
6.1219e-06
6.47561e-06
6.84877e-06
7.24239e-06
7.65753e-06
8.0953e-06
8.55686e-06
9.04344e-06
9.5563e-06
1.00968e-05
1.06663e-05
1.12664e-05
1.18984e-05
1.25641e-05
1.32652e-05
1.40034e-05
1.47805e-05
1.55985e-05
1.64593e-05
1.73652e-05
1.83183e-05
1.9321e-05
2.03756e-05
2.14847e-05
2.26508e-05
2.38769e-05
2.51656e-05
2.65202e-05
2.79436e-05
2.94392e-05
3.10103e-05
3.26607e-05
3.43939e-05
3.62139e-05
3.81247e-05
4.01305e-05
4.22359e-05
4.44452e-05
4.67635e-05
4.91956e-05
5.17468e-05
5.44224e-05
5.72282e-05
6.017e-05
6.32539e-05
6.64863e-05
6.98739e-05
7.34236e-05
7.71426e-05
8.10383e-05
8.51185e-05
8.93913e-05
9.38651e-05
9.85488e-05
0.000103451
0.000108582
0.000113951
0.000119568
0.000125445
0.000131591
0.000138018
0.000144739
0.000151766
0.00015911
0.000166786
0.000174808
0.000183189
0.000191944
0.00020109
0.00021064
0.000220613
0.000231025
0.000241894
0.000253238
0.000265076
0.000277428
0.000290314
0.000303755
0.000317773
0.00033239
0.00034763
0.000363517
0.000380076
0.000397333
0.000415313
0.000434046
0.000453558
0.000473881
0.000495043
0.000517077
0.000540014
0.000563889
0.000588735
0.000614588
0.000641485
0.000669465
0.000698565
0.000728826
0.00076029
0.000792999
0.000826998
0.000862332
0.000899048
0.000937194
0.00097682
0.00101798
0.00106072
0.00110509
0.00115116
0.00119898
0.00124861
0.00130011
0.00135354
0.00140897
0.00146646
0.00152608
0.0015879
0.00165198
0.00171841
0.00178726
0.0018586
0.00193252
0.00200909
0.0020884
0.00217054
0.00225558
0.00234363
0.00243476
0.00252909
0.00262669
0.00272768
0.00283215
0.00294021
0.00305196
0.0031675
0.00328696
0.00341044
0.00353806
0.00366994
0.0038062
0.00394696
0.00409234
0.00424249
0.00439752
0.00455758
0.00472279
0.00489331
0.00506926
0.00525081
0.00543809
0.00563126
0.00583047
0.00603588
0.00624765
0.00646594
0.00669091
0.00692274
0.00716159
0.00740764
0.00766108
0.00792207
0.0081908
0.00846746
0.00875224
0.00904532
0.00934691
0.0096572
0.00997639
0.0103047
0.0106423
0.0109894
0.0113463
0.0117131
0.0120901
0.0124775
0.0128755
0.0132843
0.0137041
0.0141353
0.014578
0.0150325
0.015499
0.0159777
0.0164689
0.0169728
0.0174898
0.0180199
0.0185635
0.0191209
0.0196923
0.0202779
0.020878
0.0214928
0.0221227
0.0227679
0.0234287
0.0241053
0.0247979
0.0255069
0.0262326
0.0269751
0.0277348
0.028512
0.0293068
0.0301196
0.0309507
0.0318003
0.0326687
0.0335561
0.0344629
0.0353893
0.0363355
0.0373019
0.0382887
0.0392961
0.0403244
0.041374
0.042445
0.0435377
0.0446523
0.0457892
0.0469485
0.0481306
0.0493355
0.0505637
0.0518153
0.0530905
0.0543896
0.0557129
0.0570604
0.0584325
0.0598294
0.0612512
0.0626981
0.0641704
0.0656683
0.0671918
0.0687413
0.0703168
0.0719185
0.0735466
0.0752012
0.0768825
0.0785906
0.0803257
0.0820877
0.0838769
0.0856933
0.0875371
0.0894083
0.091307
0.0932332
0.095187
0.0971684
0.0991776
0.101214
0.103279
0.105371
0.107491
0.109639
0.111814
0.114016
0.116247
0.118504
0.120789
0.123102
0.125441
0.127808
0.130201
0.132621
0.135068
0.137541
0.14004
0.142565
0.145116
0.147693
0.150295
0.152922
0.155574
0.15825
0.16095
0.163674
0.166422
0.169192
0.171986
0.174802
0.17764
0.180499
0.18338
0.186281
0.189203
0.192144
0.195105
0.198084
0.201082
0.204097
0.207129
0.210179
0.213244
0.216324
0.21942
0.222529
0.225653
0.228789
0.231937
0.235097
0.238268
0.241448
0.244639
0.247838
0.251045
0.254259
0.257479
0.260706
0.263937
0.267172
0.27041
0.27365
0.276893
0.280135
0.283378
0.28662
0.289859
0.293096
0.296329
0.299557
0.30278
0.305997
0.309206
0.312406
0.315597
0.318779
0.321948
0.325106
0.328251
0.331381
0.334497
0.337596
0.340679
0.343743
0.346789
0.349814
0.352819
0.355801
0.358761
0.361697
0.364608
0.367494
0.370352
0.373183
0.375985
0.378757
0.381499
0.384209
0.386886
0.38953
0.39214
0.394714
0.397252
0.399753
0.402215
0.404639
0.407023
0.409366
0.411668
0.413927
0.416143
0.418315
0.420442
0.422524
0.424559
0.426547
0.428486
0.430378
0.432219
0.434011
0.435752
0.437442
0.439079
0.440664
0.442195
0.443673
0.445096
0.446464
0.447776
0.449032
0.450232
0.451375
0.45246
0.453487
0.454456
0.455366
0.456218
0.457009
0.457742
0.458414
0.459026
0.459577
0.460068
0.460498
0.460866
0.461174
0.46142
0.461605
0.461728
0.461789
0.461789
0.461728
0.461605
0.46142
0.461174
0.460866
0.460498
0.460068
0.459577
0.459026
0.458414
0.457742
0.457009
0.456218
0.455366
0.454456
0.453487
0.45246
0.451375
0.450232
0.449032
0.447776
0.446464
0.445096
0.443673
0.442195
0.440664
0.439079
0.437442
0.435752
0.434011
0.432219
0.430378
0.428486
0.426547
0.424559
0.422524
0.420442
0.418315
0.416143
0.413927
0.411668
0.409366
0.407023
0.404639
0.402215
0.399753
0.397252
0.394714
0.39214
0.38953
0.386886
0.384209
0.381499
0.378757
0.375985
0.373183
0.370352
0.367494
0.364608
0.361697
0.358761
0.355801
0.352819
0.349814
0.346789
0.343743
0.340679
0.337596
0.334497
0.331381
0.328251
0.325106
0.321948
0.318779
0.315597
0.312406
0.309206
0.305997
0.30278
0.299557
0.296329
0.293096
0.289859
0.28662
0.283378
0.280135
0.276893
0.27365
0.27041
0.267172
0.263937
0.260706
0.257479
0.254259
0.251045
0.247838
0.244639
0.241448
0.238268
0.235097
0.231937
0.228789
0.225653
0.222529
0.21942
0.216324
0.213244
0.210179
0.207129
0.204097
0.201082
0.198084
0.195105
0.192144
0.189203
0.186281
0.18338
0.180499
0.17764
0.174802
0.171986
0.169192
0.166422
0.163674
0.16095
0.15825
0.155574
0.152922
0.150295
0.147693
0.145116
0.142565
0.14004
0.137541
0.135068
0.132621
0.130201
0.127808
0.125441
0.123102
0.120789
0.118504
0.116247
0.114016
0.111814
0.109639
0.107491
0.105371
0.103279
0.101214
0.0991776
0.0971684
0.095187
0.0932332
0.091307
0.0894083
0.0875371
0.0856933
0.0838769
0.0820877
0.0803257
0.0785906
0.0768825
0.0752012
0.0735466
0.0719185
0.0703168
0.0687413
0.0671918
0.0656683
0.0641704
0.0626981
0.0612512
0.0598294
0.0584325
0.0570604
0.0557129
0.0543896
0.0530905
0.0518153
0.0505637
0.0493355
0.0481306
0.0469485
0.0457892
0.0446523
0.0435377
0.042445
0.041374
0.0403244
0.0392961
0.0382887
0.0373019
0.0363355
0.0353893
0.0344629
0.0335561
0.0326687
0.0318003
0.0309507
0.0301196
0.0293068
0.028512
0.0277348
0.0269751
0.0262326
0.0255069
0.0247979
0.0241053
0.0234287
0.0227679
0.0221227
0.0214928
0.020878
0.0202779
0.0196923
0.0191209
0.0185635
0.0180199
0.0174898
0.0169728
0.0164689
0.0159777
0.015499
0.0150325
0.014578
0.0141353
0.0137041
0.0132843
0.0128755
0.0124775
0.0120901
0.0117131
0.0113463
0.0109894
0.0106423
0.0103047
0.00997639
0.0096572
0.00934691
0.00904532
0.00875224
0.00846746
0.0081908
0.00792207
0.00766108
0.00740764
0.00716159
0.00692274
0.00669091
0.00646594
0.00624765
0.00603588
0.00583047
0.00563126
0.00543809
0.00525081
0.00506926
0.00489331
0.00472279
0.00455758
0.00439752
0.00424249
0.00409234
0.00394696
0.0038062
0.00366994
0.00353806
0.00341044
0.00328696
0.0031675
0.00305196
0.00294021
0.00283215
0.00272768
0.00262669
0.00252909
0.00243476
0.00234363
0.00225558
0.00217054
0.0020884
0.00200909
0.00193252
0.0018586
0.00178726
0.00171841
0.00165198
0.0015879
0.00152608
0.00146646
0.00140897
0.00135354
0.00130011
0.00124861
0.00119898
0.00115116
0.00110509
0.00106072
0.00101798
0.00097682
0.000937194
0.000899048
0.000862332
0.000826998
0.000792999
0.00076029
0.000728826
0.000698565
0.000669465
0.000641485
0.000614588
0.000588735
0.000563889
0.000540014
0.000517077
0.000495043
0.000473881
0.000453558
0.000434046
0.000415313
0.000397333
0.000380076
0.000363517
0.00034763
0.00033239
0.000317773
0.000303755
0.000290314
0.000277428
0.000265076
0.000253238
0.000241894
0.000231025
0.000220613
0.00021064
0.00020109
0.000191944
0.000183189
0.000174808
0.000166786
0.00015911
0.000151766
0.000144739
0.000138018
0.000131591
0.000125445
0.000119568
0.000113951
0.000108582
0.000103451
9.85488e-05
9.38651e-05
8.93913e-05
8.51185e-05
8.10383e-05
7.71426e-05
7.34236e-05
6.98739e-05
6.64863e-05
6.32539e-05
6.017e-05
5.72282e-05
5.44224e-05
5.17468e-05
4.91956e-05
4.67635e-05
4.44452e-05
4.22359e-05
4.01305e-05
3.81247e-05
3.62139e-05
3.43939e-05
3.26607e-05
3.10103e-05
2.94392e-05
2.79436e-05
2.65202e-05
2.51656e-05
2.38769e-05
2.26508e-05
2.14847e-05
2.03756e-05
1.9321e-05
1.83183e-05
1.73652e-05
1.64593e-05
1.55985e-05
1.47805e-05
1.40034e-05
1.32652e-05
1.25641e-05
1.18984e-05
1.12664e-05
1.06663e-05
1.00968e-05
9.5563e-06
9.04344e-06
8.55686e-06
8.0953e-06
7.65753e-06
7.24239e-06
6.84877e-06
6.47561e-06
6.1219e-06
5.78667e-06
5.46902e-06
5.16805e-06
4.88294e-06
4.6129e-06
4.35716e-06
4.115e-06
3.88575e-06
3.66873e-06
3.46334e-06
3.26898e-06
3.08507e-06
2.9111e-06
2.74654e-06
2.5909e-06
2.44374e-06
2.3046e-06
2.17307e-06
2.04875e-06
1.93127e-06
1.82026e-06
1.71539e-06
1.61632e-06
1.52276e-06
1.43441e-06
1.35099e-06
1.27224e-06
1.19791e-06
1.12776e-06
1.06157e-06
9.99116e-07
9.40208e-07
8.84647e-07
8.32253e-07
7.82852e-07
7.36281e-07
6.92384e-07
6.51015e-07
6.12033e-07
5.75307e-07
5.40713e-07
5.08131e-07
4.7745e-07
4.48563e-07
4.21371e-07
3.95778e-07
3.71694e-07
3.49035e-07
3.2772e-07
3.07673e-07
2.88823e-07
2.71101e-07
2.54443e-07
2.38789e-07
2.24082e-07
2.10268e-07
1.97296e-07
1.85117e-07
1.73686e-07
1.62961e-07
1.52902e-07
1.43469e-07
1.34628e-07
1.26345e-07
1.18589e-07
1.11328e-07
1.04536e-07
9.81853e-08
9.22522e-08
8.67132e-08
8.15464e-08
7.67316e-08
7.22498e-08
6.8083e-08
6.42148e-08
6.06296e-08
5.73131e-08
5.4252e-08
5.14338e-08
4.88472e-08
4.64816e-08
4.43275e-08
4.2376e-08
4.06192e-08
3.90498e-08
3.76614e-08
3.64483e-08
3.54056e-08
3.45287e-08
3.38143e-08
3.32592e-08
3.28613e-08
3.26188e-08
3.25307e-08
)
;

boundaryField
{
    sides
    {
        type            zeroGradient;
    }
    empty
    {
        type            empty;
    }
}


// ************************************************************************* //
