/*--------------------------------*- C++ -*----------------------------------*\
| =========                 |                                                 |
| \\      /  F ield         | OpenFOAM: The Open Source CFD Toolbox           |
|  \\    /   O peration     | Version:  2312                                  |
|   \\  /    A nd           | Website:  www.openfoam.com                      |
|    \\/     M anipulation  |                                                 |
\*---------------------------------------------------------------------------*/
FoamFile
{
    version     2.0;
    format      ascii;
    arch        "LSB;label=32;scalar=64";
    class       volScalarField;
    location    "3.5";
    object      T;
}
// * * * * * * * * * * * * * * * * * * * * * * * * * * * * * * * * * * * * * //

dimensions      [0 0 0 1 0 0 0];

internalField   nonuniform List<scalar> 
1000
(
0
0
0
0
0
0
0
0
0
0
0
0
0
0
0
0
0
0
0
0
0
0
0
0
0
0
0
0
0
0
0
0
0
0
0
0
0
0
0
0
0
0
0
0
0
0
0
0
0
0
0
0
0
0
0
0
0
0
0
0
0
0
0
0
0
0
0
0
0
0
0
0
0
0
0
0
0
0
0
0
0
0
0
0
0
0
0
0
0
0
0
0
0
0
0
0
0
0
0
0
0
0
0
0
0
0
0
0
0
0
0
0
0
0
0
0
0
0
0
0
0
0
0
0
0
0
0
0
0
0
0
0
0
0
0
0
0
0
0
0
0
0
0
0
0
0
0
0
0
0
0
0
0
0
0
0
0
0
0
0
0
0
0
0
0
0
0
0
0
0
0
0
0
-4.94066e-324
2.96439e-323
-4.94066e-324
2.96439e-323
-4.94066e-324
2.96439e-323
-4.94066e-324
2.96439e-323
-4.94066e-324
2.96439e-323
-4.94066e-324
2.96439e-323
-4.94066e-324
2.96439e-323
-4.94066e-324
2.96439e-323
-4.94066e-324
2.96439e-323
-4.94066e-324
2.96439e-323
-4.94066e-324
2.96439e-323
-4.94066e-324
2.96439e-323
-4.94066e-324
2.96439e-323
-4.94066e-324
2.96439e-323
-4.94066e-324
2.96439e-323
-4.94066e-324
2.96439e-323
-4.94066e-324
2.96439e-323
-4.94066e-324
2.96439e-323
-4.94066e-324
2.96439e-323
-4.94066e-324
2.96439e-323
-4.94066e-324
2.96439e-323
-4.94066e-324
2.96439e-323
-4.94066e-324
2.96439e-323
-4.94066e-324
2.96439e-323
-4.94066e-324
2.96439e-323
-4.94066e-324
2.96439e-323
-4.94066e-324
2.96439e-323
-4.94066e-324
2.96439e-323
-4.94066e-324
2.96439e-323
-4.94066e-324
2.96439e-323
-4.94066e-324
2.96439e-323
-4.94066e-324
2.96439e-323
-4.94066e-324
2.96439e-323
-4.94066e-324
2.96439e-323
-4.94066e-324
2.96439e-323
-4.94066e-324
2.96439e-323
-4.94066e-324
2.96439e-323
-4.94066e-324
2.96439e-323
-4.94066e-324
2.96439e-323
-4.94066e-324
2.96439e-323
-4.94066e-324
2.96439e-323
-4.94066e-324
2.96439e-323
-4.94066e-324
9.88131e-324
2.96439e-323
5.43472e-323
7.41098e-323
9.88131e-323
1.18576e-322
1.43279e-322
1.63042e-322
1.87745e-322
2.12448e-322
2.37152e-322
2.61855e-322
2.86558e-322
3.06321e-322
3.26083e-322
3.45846e-322
3.65609e-322
4.15015e-322
4.00193e-322
3.7549e-322
3.16202e-322
-6.22523e-322
-1.21244e-320
-1.54035e-319
-1.91639e-318
-2.47582e-317
-3.15508e-316
-4.65491e-315
-6.92588e-314
-5.68911e-312
-3.27358e-310
-1.07868e-308
-2.50107e-307
-4.69217e-306
-7.71256e-305
-1.1399e-303
-1.51077e-302
-1.78328e-301
-1.87728e-300
-1.7833e-299
-1.569e-298
-1.33438e-297
-1.15461e-296
-9.88104e-296
-2.36109e-295
4.16644e-296
4.9262e-294
6.64387e-293
8.23173e-292
1.02573e-290
1.30364e-289
1.67798e-288
2.22201e-287
2.99217e-286
4.31573e-285
6.51064e-284
1.18361e-282
2.31087e-281
6.24805e-280
1.54252e-278
6.24197e-277
1.66901e-275
1.83e-273
5.22719e-272
6.8714e-269
4.20791e-267
1.04618e-265
1.31142e-264
9.70605e-264
4.43371e-263
1.49178e-262
6.7145e-262
6.12609e-261
1.21256e-260
-2.47741e-260
-8.90287e-259
-1.63647e-257
-3.08942e-256
-5.29873e-255
-9.43269e-254
-1.5475e-252
-2.57129e-251
-3.95833e-250
-6.07971e-249
-8.25655e-248
-1.22348e-246
-1.48457e-245
-4.75964e-244
-1.01857e-242
-3.10831e-241
-9.09537e-240
-1.81255e-238
-2.48366e-237
-2.48866e-236
-1.91179e-235
-1.16014e-234
-2.53631e-234
-1.23025e-234
2.13199e-233
3.1977e-232
5.24967e-231
8.85164e-230
1.62256e-228
2.7319e-227
4.79041e-226
7.75054e-225
1.29534e-223
2.01427e-222
3.18994e-221
4.45885e-220
6.96701e-219
8.81864e-218
3.15397e-216
7.15343e-215
1.68402e-213
4.18e-212
8.01558e-211
1.11157e-209
1.14336e-208
9.10534e-208
5.75737e-207
1.49494e-206
1.06703e-206
-6.55288e-206
-8.10285e-205
-8.77552e-204
-1.05465e-202
-1.40376e-201
-1.94882e-200
-2.78825e-199
-3.96952e-198
-5.66517e-197
-7.89083e-196
-1.0987e-194
-1.46847e-193
-2.02148e-192
-2.59761e-191
-4.07646e-190
-5.84512e-189
-3.91101e-187
-1.38411e-185
-2.62433e-184
-8.88832e-183
-2.65341e-181
-5.0305e-180
-6.43373e-179
-6.15526e-178
-4.7807e-177
-2.19711e-176
-2.37739e-176
4.28928e-176
8.48142e-175
8.59793e-174
8.28735e-173
1.01079e-171
1.39207e-170
1.45971e-169
1.16646e-168
2.45093e-167
4.46863e-166
4.4635e-165
2.34077e-164
1.61825e-163
7.1078e-162
7.57287e-161
2.74905e-161
1.27488e-160
1.5876e-158
1.4005e-157
-3.12208e-157
-1.82752e-156
2.03472e-155
3.10425e-154
-2.3822e-154
-9.99448e-153
7.11263e-153
7.89986e-151
7.57935e-151
-2.94519e-149
-5.31799e-149
9.0461e-148
4.35e-147
-1.86546e-146
-3.28042e-145
1.3929e-146
1.5775e-143
1.72831e-143
-4.85184e-142
-2.23253e-141
6.92015e-141
1.38179e-139
5.06451e-140
-6.42294e-138
-2.27428e-137
7.77718e-137
9.45224e-136
-2.77781e-136
-5.75854e-134
-2.54612e-133
4.40379e-133
6.89587e-132
-5.65591e-133
-3.54177e-130
-3.45073e-129
-1.58896e-129
6.76909e-128
7.45622e-128
-1.29951e-126
-2.93359e-125
-5.12459e-125
2.91512e-124
3.39442e-123
1.76831e-123
-8.82124e-122
-6.72072e-121
-2.2405e-121
1.81876e-119
1.09911e-118
8.02822e-120
-3.38533e-117
-2.32424e-116
-9.28539e-117
5.2986e-115
4.5188e-114
3.22992e-114
-7.15103e-113
-4.07753e-112
-3.95538e-113
1.04508e-110
1.57122e-109
3.14117e-109
-6.60786e-109
-1.74594e-107
-4.41786e-107
5.433e-107
1.95334e-105
1.25466e-104
8.71527e-105
-1.53577e-103
-2.24457e-102
-5.1934e-102
5.28533e-102
1.89898e-100
1.30903e-99
1.13349e-99
-1.13175e-98
-1.75334e-97
-6.27877e-97
-1.22741e-97
1.03211e-95
1.21312e-94
2.60448e-94
-1.94881e-94
-7.23346e-93
-7.70799e-92
-1.68156e-91
8.65073e-92
3.96265e-90
3.82654e-89
6.73451e-89
-6.80004e-89
-1.91537e-87
-1.92681e-86
-5.0688e-86
-5.3693e-87
7.12723e-85
7.80661e-84
3.85095e-83
3.51466e-83
-1.84738e-82
-2.49641e-81
-1.99318e-80
-3.81352e-80
1.11219e-80
6.43947e-79
6.20095e-78
2.76734e-77
2.53237e-77
-1.11706e-76
-1.42883e-75
-1.1781e-74
-8.84795e-74
-6.41822e-73
-4.56642e-72
-3.19613e-71
-2.20709e-70
-1.50471e-69
-9.98147e-69
-3.42213e-68
-2.94393e-68
1.17291e-67
1.34194e-66
9.72797e-66
6.36534e-65
4.00815e-64
2.47205e-63
1.50156e-62
8.99884e-62
5.32442e-61
3.1111e-60
1.79545e-59
1.0235e-58
5.76357e-58
3.20639e-57
1.76234e-56
9.5706e-56
5.13562e-55
2.72318e-54
1.42697e-53
7.38985e-53
3.78233e-52
1.91343e-51
9.5679e-51
4.72928e-50
2.31084e-49
1.11625e-48
5.33076e-48
2.51696e-47
1.17501e-46
5.42378e-46
2.47559e-45
1.11735e-44
4.9871e-44
2.20128e-43
9.60921e-43
4.14858e-42
1.77144e-41
7.48142e-41
3.12526e-40
1.29136e-39
5.27814e-39
2.13403e-38
8.53526e-38
3.3771e-37
1.32188e-36
5.11887e-36
1.9611e-35
7.43326e-35
2.78755e-34
1.03428e-33
3.79699e-33
1.37921e-32
4.95699e-32
1.76284e-31
6.20331e-31
2.16e-30
7.44237e-30
2.53747e-29
8.5611e-29
2.85826e-28
9.44324e-28
3.0874e-27
9.98896e-27
3.19821e-26
1.01334e-25
3.17738e-25
9.85934e-25
3.02757e-24
9.20046e-24
2.76691e-23
8.2347e-23
2.42533e-22
7.06905e-22
2.039e-21
5.82023e-21
1.64408e-20
4.59587e-20
1.27136e-19
3.48033e-19
9.42801e-19
2.52734e-18
6.70415e-18
1.75977e-17
4.5708e-17
1.17475e-16
2.98752e-16
7.51755e-16
1.87169e-15
4.6108e-15
1.1238e-14
2.70998e-14
6.46535e-14
1.52601e-13
3.56324e-13
8.23086e-13
1.8808e-12
4.2513e-12
9.5053e-12
2.10213e-11
4.59815e-11
9.94762e-11
2.12838e-10
4.50351e-10
9.42333e-10
1.94979e-09
3.9891e-09
8.06946e-09
1.61387e-08
3.19097e-08
6.23703e-08
1.20505e-07
2.3013e-07
4.34362e-07
8.10227e-07
1.4935e-06
2.72024e-06
4.8953e-06
8.70323e-06
1.52852e-05
2.65159e-05
4.543e-05
7.68662e-05
0.00012842
0.000211831
0.000344943
0.00055444
0.000879538
0.00137685
0.00212662
0.00324042
0.00487028
0.007219
0.0105512
0.0152038
0.021595
0.0302292
0.0416959
0.0566593
0.0758366
0.0999617
0.129734
0.165753
0.20844
0.257954
0.314112
0.376324
0.443551
0.514308
0.586712
0.658586
0.727614
0.79153
0.848329
0.896464
0.934998
0.963678
0.982938
0.993913
0.998612
0.999844
0.999994
1
1
1
1
1
1
1
1
1
1
1
1
1
1
1
1
1
1
1
1
1
1
1
1
1
1
1
1
1
1
1
1
1
1
1
1
1
1
1
1
1
1
1
1
1
1
1
1
1
1
1
1
0.999999
0.999999
0.999997
0.999995
0.999991
0.999985
0.999973
0.999955
0.999923
0.999871
0.999788
0.999655
0.999445
0.99912
0.998622
0.997871
0.996757
0.995125
0.992775
0.98944
0.984785
0.97839
0.96975
0.958278
0.943307
0.924121
0.899987
0.870204
0.834174
0.791476
0.741951
0.685783
0.623563
0.556331
0.485572
0.413169
0.3413
0.272281
0.208377
0.151592
0.103472
0.0649541
0.0362888
0.0170422
0.00607765
0.00138501
0.000155971
6.32173e-06
6.67578e-08
1.38306e-10
4.47296e-14
3.90715e-18
3.37576e-22
2.89638e-26
2.47758e-30
2.11995e-34
1.81848e-38
1.5653e-42
1.35194e-46
1.17073e-50
1.01544e-54
8.8131e-59
7.64842e-63
6.63439e-67
5.75108e-71
4.98236e-75
4.31442e-79
3.73498e-83
3.233e-87
2.79851e-91
2.42261e-95
2.09742e-99
1.81607e-103
1.57257e-107
1.36178e-111
1.17926e-115
1.0212e-119
8.8431e-124
7.65752e-128
6.63075e-132
5.74157e-136
4.97156e-140
4.3048e-144
3.72745e-148
3.22753e-152
2.79466e-156
2.41984e-160
2.09529e-164
1.81427e-168
1.57093e-172
1.36022e-176
1.17778e-180
1.0198e-184
8.83004e-189
7.64557e-193
6.61997e-197
5.73192e-201
4.96299e-205
4.29719e-209
3.7207e-213
3.22154e-217
2.78934e-221
2.41511e-225
2.09108e-229
1.81052e-233
1.5676e-237
1.35727e-241
1.17515e-245
1.01747e-249
8.80941e-254
7.6273e-258
6.60379e-262
5.71761e-266
4.95033e-270
4.286e-274
3.71081e-278
3.21281e-282
2.78162e-286
2.4083e-290
2.08507e-294
1.80522e-298
1.56293e-302
1.35315e-306
1.17152e-310
1.01427e-314
8.78108e-319
6.42285e-323
0
0
0
0
0
0
0
0
0
0
0
0
0
0
0
0
0
0
0
0
0
0
0
0
0
0
0
0
0
0
0
0
0
0
0
0
0
0
0
0
0
0
0
0
0
0
0
0
0
0
0
0
0
0
0
0
0
0
0
0
0
0
0
0
0
0
0
0
0
0
0
0
0
0
0
0
0
0
0
0
0
0
0
0
0
0
0
0
0
0
0
0
0
0
0
0
0
0
0
0
0
0
0
0
0
0
0
0
0
0
0
0
)
;

boundaryField
{
    sides
    {
        type            zeroGradient;
    }
    empty
    {
        type            empty;
    }
}


// ************************************************************************* //
