/*--------------------------------*- C++ -*----------------------------------*\
| =========                 |                                                 |
| \\      /  F ield         | OpenFOAM: The Open Source CFD Toolbox           |
|  \\    /   O peration     | Version:  2312                                  |
|   \\  /    A nd           | Website:  www.openfoam.com                      |
|    \\/     M anipulation  |                                                 |
\*---------------------------------------------------------------------------*/
FoamFile
{
    version     2.0;
    format      ascii;
    arch        "LSB;label=32;scalar=64";
    class       volScalarField;
    location    "0.7";
    object      T;
}
// * * * * * * * * * * * * * * * * * * * * * * * * * * * * * * * * * * * * * //

dimensions      [0 0 0 1 0 0 0];

internalField   nonuniform List<scalar> 
1000
(
1.19871e-31
1.25725e-31
1.42311e-31
1.7101e-31
2.14207e-31
2.75484e-31
3.59912e-31
4.74456e-31
6.28537e-31
8.34781e-31
1.11003e-30
1.47669e-30
1.96448e-30
2.6128e-30
3.4738e-30
4.61651e-30
6.13215e-30
8.14126e-30
1.0803e-29
1.43275e-29
1.89916e-29
2.51607e-29
3.33158e-29
4.40905e-29
5.83183e-29
7.70958e-29
1.01864e-28
1.34517e-28
1.77541e-28
2.34198e-28
3.08769e-28
4.06862e-28
5.35827e-28
7.05286e-28
9.27832e-28
1.21994e-27
1.60312e-27
2.10552e-27
2.76385e-27
3.62603e-27
4.75456e-27
6.23091e-27
8.16118e-27
1.06836e-26
1.39778e-26
1.82778e-26
2.38874e-26
3.12014e-26
4.07323e-26
5.31451e-26
6.93022e-26
9.03213e-26
1.1765e-25
1.53163e-25
1.99284e-25
2.59149e-25
3.3681e-25
4.37499e-25
5.67973e-25
7.36945e-25
9.55652e-25
1.23857e-24
1.60435e-24
2.07698e-24
2.68735e-24
3.47512e-24
4.49129e-24
5.80133e-24
7.48927e-24
9.66287e-24
1.24603e-23
1.60584e-23
2.06839e-23
2.66266e-23
3.42573e-23
4.40498e-23
5.66093e-23
7.27083e-23
9.33326e-23
1.19739e-22
1.53529e-22
1.96741e-22
2.51972e-22
3.22524e-22
4.12593e-22
5.27513e-22
6.74055e-22
8.60811e-22
1.09868e-21
1.40147e-21
1.78668e-21
2.27646e-21
2.89882e-21
3.6892e-21
4.69237e-21
5.96486e-21
7.57805e-21
9.62194e-21
1.221e-20
1.54852e-20
1.96275e-20
2.48634e-20
3.14777e-20
3.98283e-20
5.03649e-20
6.36518e-20
8.03968e-20
1.01488e-19
1.28036e-19
1.61435e-19
2.03427e-19
2.56191e-19
3.22452e-19
4.05611e-19
5.09916e-19
6.40665e-19
8.04467e-19
1.00955e-18
1.26617e-18
1.58708e-18
1.98815e-18
2.4891e-18
3.11442e-18
3.89452e-18
4.86713e-18
6.07903e-18
7.58816e-18
9.46631e-18
1.18023e-17
1.47059e-17
1.83129e-17
2.27911e-17
2.83474e-17
3.52371e-17
4.37751e-17
5.43493e-17
6.74372e-17
8.36267e-17
1.0364e-16
1.28367e-16
1.58896e-16
1.96568e-16
2.43025e-16
3.0028e-16
3.70799e-16
4.57603e-16
5.64387e-16
6.95667e-16
8.56965e-16
1.05502e-15
1.29806e-15
1.59612e-15
1.96143e-15
2.40887e-15
2.95659e-15
3.62664e-15
4.44583e-15
5.44672e-15
6.66888e-15
8.16027e-15
9.97908e-15
1.21958e-14
1.48958e-14
1.81825e-14
2.21806e-14
2.70413e-14
3.2947e-14
4.01177e-14
4.8819e-14
5.93709e-14
7.21591e-14
8.76478e-14
1.06395e-13
1.29073e-13
1.56487e-13
1.89607e-13
2.29595e-13
2.77843e-13
3.36022e-13
4.06131e-13
4.90564e-13
5.92181e-13
7.14403e-13
8.61315e-13
1.03779e-12
1.24965e-12
1.50381e-12
1.80855e-12
2.17367e-12
2.61088e-12
3.13406e-12
3.75973e-12
4.50749e-12
5.40057e-12
6.46655e-12
7.73808e-12
9.25381e-12
1.10595e-11
1.32092e-11
1.57669e-11
1.88079e-11
2.24214e-11
2.67122e-11
3.18042e-11
3.78428e-11
4.49996e-11
5.34761e-11
6.35091e-11
7.53768e-11
8.94055e-11
1.05978e-10
1.25543e-10
1.48625e-10
1.7584e-10
2.07906e-10
2.45664e-10
2.90094e-10
3.42341e-10
4.03742e-10
4.75852e-10
5.60485e-10
6.59748e-10
7.76097e-10
9.12381e-10
1.07191e-09
1.25853e-09
1.4767e-09
1.73158e-09
2.02915e-09
2.37634e-09
2.78115e-09
3.25284e-09
3.80209e-09
4.44122e-09
5.18447e-09
6.04821e-09
7.05132e-09
8.21552e-09
9.56578e-09
1.11308e-08
1.29435e-08
1.50418e-08
1.74689e-08
2.02746e-08
2.35158e-08
2.72575e-08
3.15742e-08
3.65509e-08
4.22847e-08
4.88864e-08
5.64822e-08
6.52161e-08
7.52518e-08
8.67756e-08
9.99993e-08
1.15164e-07
1.32542e-07
1.52443e-07
1.75219e-07
2.01267e-07
2.31037e-07
2.65039e-07
3.03848e-07
3.48113e-07
3.98568e-07
4.56038e-07
5.21457e-07
5.95871e-07
6.80463e-07
7.76558e-07
8.85646e-07
1.0094e-06
1.1497e-06
1.30865e-06
1.4886e-06
1.69219e-06
1.92237e-06
2.18244e-06
2.47608e-06
2.80739e-06
3.18096e-06
3.60189e-06
4.07586e-06
4.60918e-06
5.20888e-06
5.88277e-06
6.6395e-06
7.48868e-06
8.44095e-06
9.5081e-06
1.07032e-05
1.20406e-05
1.35362e-05
1.52077e-05
1.70744e-05
1.91578e-05
2.14812e-05
2.40708e-05
2.69548e-05
3.01647e-05
3.37347e-05
3.77026e-05
4.21096e-05
4.7001e-05
5.24263e-05
5.84395e-05
6.50999e-05
7.2472e-05
8.06262e-05
8.96392e-05
9.95945e-05
0.000110583
0.000122704
0.000136065
0.000150781
0.00016698
0.000184799
0.000204386
0.000225901
0.000249517
0.000275423
0.00030382
0.000334927
0.000368977
0.000406224
0.000446939
0.000491415
0.000539964
0.000592924
0.000650654
0.00071354
0.000781994
0.000856459
0.000937405
0.00102533
0.00112078
0.00122432
0.00133656
0.00145814
0.00158974
0.0017321
0.00188599
0.00205222
0.00223166
0.00242522
0.00263386
0.0028586
0.00310053
0.00336075
0.00364047
0.00394093
0.00426345
0.00460939
0.00498021
0.0053774
0.00580254
0.00625729
0.00674336
0.00726253
0.00781668
0.00840774
0.00903773
0.00970873
0.0104229
0.0111825
0.0119899
0.0128474
0.0137574
0.0147227
0.0157457
0.0168291
0.0179758
0.0191885
0.0204702
0.0218237
0.0232522
0.0247587
0.0263462
0.0280181
0.0297776
0.0316278
0.0335721
0.0356139
0.0377564
0.0400032
0.0423574
0.0448227
0.0474023
0.0500996
0.052918
0.0558608
0.0589314
0.0621329
0.0654687
0.0689417
0.0725552
0.076312
0.0802152
0.0842674
0.0884714
0.0928297
0.0973447
0.102019
0.106854
0.111852
0.117016
0.122346
0.127843
0.13351
0.139347
0.145355
0.151535
0.157886
0.164409
0.171103
0.177969
0.185005
0.192211
0.199584
0.207124
0.214829
0.222696
0.230723
0.238907
0.247246
0.255735
0.264372
0.273151
0.28207
0.291123
0.300306
0.309613
0.319039
0.328578
0.338224
0.347972
0.357814
0.367745
0.377756
0.387841
0.397992
0.408202
0.418463
0.428767
0.439105
0.449471
0.459854
0.470246
0.48064
0.491025
0.501393
0.511736
0.522044
0.532307
0.542518
0.552667
0.562744
0.572741
0.582649
0.592459
0.602162
0.611748
0.62121
0.630538
0.639724
0.64876
0.657637
0.666347
0.674882
0.683234
0.691396
0.69936
0.707119
0.714665
0.721993
0.729094
0.735963
0.742594
0.74898
0.755115
0.760995
0.766614
0.771967
0.777049
0.781856
0.786382
0.790626
0.794582
0.798247
0.801618
0.804691
0.807466
0.809938
0.812105
0.813967
0.815521
0.816765
0.8177
0.818323
0.818635
0.818635
0.818323
0.8177
0.816765
0.815521
0.813967
0.812105
0.809938
0.807466
0.804691
0.801618
0.798247
0.794582
0.790626
0.786382
0.781856
0.777049
0.771967
0.766614
0.760995
0.755115
0.74898
0.742594
0.735963
0.729094
0.721993
0.714665
0.707119
0.69936
0.691396
0.683234
0.674882
0.666347
0.657637
0.64876
0.639724
0.630538
0.62121
0.611748
0.602162
0.592459
0.582649
0.572741
0.562744
0.552667
0.542518
0.532307
0.522044
0.511736
0.501393
0.491025
0.48064
0.470246
0.459854
0.449471
0.439105
0.428767
0.418463
0.408202
0.397992
0.387841
0.377756
0.367745
0.357814
0.347972
0.338224
0.328578
0.319039
0.309613
0.300306
0.291123
0.28207
0.273151
0.264372
0.255735
0.247246
0.238907
0.230723
0.222696
0.214829
0.207124
0.199584
0.192211
0.185005
0.177969
0.171103
0.164409
0.157886
0.151535
0.145355
0.139347
0.13351
0.127843
0.122346
0.117016
0.111852
0.106854
0.102019
0.0973447
0.0928297
0.0884714
0.0842674
0.0802152
0.076312
0.0725552
0.0689417
0.0654687
0.0621329
0.0589314
0.0558608
0.052918
0.0500996
0.0474023
0.0448227
0.0423574
0.0400032
0.0377564
0.0356139
0.0335721
0.0316278
0.0297776
0.0280181
0.0263462
0.0247587
0.0232522
0.0218237
0.0204702
0.0191885
0.0179758
0.0168291
0.0157457
0.0147227
0.0137574
0.0128474
0.0119899
0.0111825
0.0104229
0.00970873
0.00903773
0.00840774
0.00781668
0.00726253
0.00674336
0.00625729
0.00580254
0.0053774
0.00498021
0.00460939
0.00426345
0.00394093
0.00364047
0.00336075
0.00310053
0.0028586
0.00263386
0.00242522
0.00223166
0.00205222
0.00188599
0.0017321
0.00158974
0.00145814
0.00133656
0.00122432
0.00112078
0.00102533
0.000937405
0.000856459
0.000781994
0.00071354
0.000650654
0.000592924
0.000539964
0.000491415
0.000446939
0.000406224
0.000368977
0.000334927
0.00030382
0.000275423
0.000249517
0.000225901
0.000204386
0.000184799
0.00016698
0.000150781
0.000136065
0.000122704
0.000110583
9.95945e-05
8.96392e-05
8.06262e-05
7.2472e-05
6.50999e-05
5.84395e-05
5.24263e-05
4.7001e-05
4.21096e-05
3.77026e-05
3.37347e-05
3.01647e-05
2.69548e-05
2.40708e-05
2.14812e-05
1.91578e-05
1.70744e-05
1.52077e-05
1.35362e-05
1.20406e-05
1.07032e-05
9.5081e-06
8.44095e-06
7.48868e-06
6.6395e-06
5.88277e-06
5.20888e-06
4.60918e-06
4.07586e-06
3.60189e-06
3.18096e-06
2.80739e-06
2.47608e-06
2.18244e-06
1.92237e-06
1.69219e-06
1.4886e-06
1.30865e-06
1.1497e-06
1.0094e-06
8.85646e-07
7.76558e-07
6.80463e-07
5.95871e-07
5.21457e-07
4.56038e-07
3.98568e-07
3.48113e-07
3.03848e-07
2.65039e-07
2.31037e-07
2.01267e-07
1.75219e-07
1.52443e-07
1.32542e-07
1.15164e-07
9.99993e-08
8.67756e-08
7.52518e-08
6.52161e-08
5.64822e-08
4.88864e-08
4.22847e-08
3.65509e-08
3.15742e-08
2.72575e-08
2.35158e-08
2.02746e-08
1.74689e-08
1.50418e-08
1.29435e-08
1.11308e-08
9.56578e-09
8.21552e-09
7.05132e-09
6.04821e-09
5.18447e-09
4.44122e-09
3.80209e-09
3.25284e-09
2.78115e-09
2.37634e-09
2.02915e-09
1.73158e-09
1.4767e-09
1.25853e-09
1.07191e-09
9.12381e-10
7.76097e-10
6.59748e-10
5.60485e-10
4.75852e-10
4.03742e-10
3.42341e-10
2.90094e-10
2.45664e-10
2.07906e-10
1.7584e-10
1.48625e-10
1.25543e-10
1.05978e-10
8.94055e-11
7.53768e-11
6.35091e-11
5.34761e-11
4.49996e-11
3.78428e-11
3.18042e-11
2.67122e-11
2.24214e-11
1.88079e-11
1.57669e-11
1.32092e-11
1.10595e-11
9.25381e-12
7.73808e-12
6.46655e-12
5.40057e-12
4.50749e-12
3.75973e-12
3.13406e-12
2.61088e-12
2.17367e-12
1.80855e-12
1.50381e-12
1.24965e-12
1.03779e-12
8.61315e-13
7.14403e-13
5.92181e-13
4.90564e-13
4.06131e-13
3.36022e-13
2.77843e-13
2.29595e-13
1.89607e-13
1.56487e-13
1.29073e-13
1.06395e-13
8.76478e-14
7.21591e-14
5.93709e-14
4.8819e-14
4.01177e-14
3.2947e-14
2.70413e-14
2.21806e-14
1.81825e-14
1.48958e-14
1.21958e-14
9.97908e-15
8.16027e-15
6.66888e-15
5.44672e-15
4.44583e-15
3.62664e-15
2.95659e-15
2.40887e-15
1.96143e-15
1.59612e-15
1.29806e-15
1.05502e-15
8.56965e-16
6.95667e-16
5.64387e-16
4.57603e-16
3.70799e-16
3.0028e-16
2.43025e-16
1.96568e-16
1.58896e-16
1.28367e-16
1.0364e-16
8.36267e-17
6.74372e-17
5.43493e-17
4.37751e-17
3.52371e-17
2.83474e-17
2.27911e-17
1.83129e-17
1.47059e-17
1.18023e-17
9.46631e-18
7.58816e-18
6.07903e-18
4.86713e-18
3.89452e-18
3.11442e-18
2.4891e-18
1.98815e-18
1.58708e-18
1.26617e-18
1.00955e-18
8.04467e-19
6.40665e-19
5.09916e-19
4.05611e-19
3.22452e-19
2.56191e-19
2.03427e-19
1.61435e-19
1.28036e-19
1.01488e-19
8.03968e-20
6.36518e-20
5.03649e-20
3.98283e-20
3.14777e-20
2.48634e-20
1.96275e-20
1.54852e-20
1.221e-20
9.62194e-21
7.57805e-21
5.96486e-21
4.69237e-21
3.6892e-21
2.89882e-21
2.27646e-21
1.78668e-21
1.40147e-21
1.09868e-21
8.60811e-22
6.74055e-22
5.27513e-22
4.12593e-22
3.22524e-22
2.51972e-22
1.96741e-22
1.53529e-22
1.19739e-22
9.33326e-23
7.27083e-23
5.66093e-23
4.40498e-23
3.42573e-23
2.66266e-23
2.06839e-23
1.60584e-23
1.24603e-23
9.66287e-24
7.48927e-24
5.80133e-24
4.49129e-24
3.47512e-24
2.68735e-24
2.07698e-24
1.60435e-24
1.23857e-24
9.55652e-25
7.36945e-25
5.67973e-25
4.37499e-25
3.3681e-25
2.59149e-25
1.99284e-25
1.53163e-25
1.1765e-25
9.03213e-26
6.93022e-26
5.31451e-26
4.07323e-26
3.12014e-26
2.38874e-26
1.82778e-26
1.39778e-26
1.06836e-26
8.16118e-27
6.23091e-27
4.75456e-27
3.62603e-27
2.76385e-27
2.10552e-27
1.60312e-27
1.21994e-27
9.27832e-28
7.05286e-28
5.35827e-28
4.06862e-28
3.08769e-28
2.34198e-28
1.77541e-28
1.34517e-28
1.01864e-28
7.70958e-29
5.83183e-29
4.40905e-29
3.33158e-29
2.51607e-29
1.89916e-29
1.43275e-29
1.0803e-29
8.14126e-30
6.13215e-30
4.61651e-30
3.4738e-30
2.6128e-30
1.96448e-30
1.47669e-30
1.11003e-30
8.34781e-31
6.28537e-31
4.74456e-31
3.59912e-31
2.75484e-31
2.14207e-31
1.7101e-31
1.42311e-31
1.25725e-31
1.19871e-31
)
;

boundaryField
{
    sides
    {
        type            zeroGradient;
    }
    empty
    {
        type            empty;
    }
}


// ************************************************************************* //
