/*--------------------------------*- C++ -*----------------------------------*\
| =========                 |                                                 |
| \\      /  F ield         | OpenFOAM: The Open Source CFD Toolbox           |
|  \\    /   O peration     | Version:  2312                                  |
|   \\  /    A nd           | Website:  www.openfoam.com                      |
|    \\/     M anipulation  |                                                 |
\*---------------------------------------------------------------------------*/
FoamFile
{
    version     2.0;
    format      ascii;
    arch        "LSB;label=32;scalar=64";
    class       volScalarField;
    location    "1.9";
    object      T;
}
// * * * * * * * * * * * * * * * * * * * * * * * * * * * * * * * * * * * * * //

dimensions      [0 0 0 1 0 0 0];

internalField   nonuniform List<scalar> 
1000
(
0
0
0
0
0
0
0
0
0
0
0
0
0
0
0
0
0
0
0
0
0
0
0
0
0
0
0
0
0
0
0
0
0
0
0
0
0
0
0
0
0
0
0
0
0
0
0
0
0
0
0
0
0
0
0
0
0
0
0
0
0
0
0
0
0
0
0
0
0
0
0
0
0
0
0
0
0
0
0
0
0
0
0
0
0
0
0
0
0
0
0
0
0
0
0
0
0
0
0
0
0
0
0
0
0
0
0
0
0
0
0
0
0
0
0
0
0
0
0
0
0
0
0
0
0
0
0
0
0
0
0
0
0
0
0
0
0
0
0
0
0
0
0
0
0
0
0
0
0
0
0
0
0
0
0
0
0
0
0
0
0
0
0
0
0
0
0
0
0
0
0
0
0
0
0
0
0
0
0
0
0
0
0
0
0
0
0
0
0
0
0
0
0
0
0
0
0
0
0
0
0
0
0
0
0
0
0
0
0
0
0
0
0
0
0
0
0
0
0
0
0
0
0
0
0
0
0
0
0
0
0
0
0
0
0
0
0
0
0
0
0
0
0
0
0
0
0
0
0
0
0
0
0
0
0
0
0
0
0
0
0
0
0
0
0
0
0
0
0
0
0
0
0
0
0
0
0
0
0
0
0
0
0
0
0
0
0
0
0
0
0
0
0
0
0
0
0
0
0
0
0
0
0
0
0
0
0
0
0
0
0
0
0
0
0
0
0
0
0
0
0
0
0
0
0
0
0
0
0
0
0
0
0
0
0
0
0
0
0
0
0
0
0
0
0
0
0
0
0
0
0
0
0
0
0
0
0
0
0
0
0
0
0
0
0
0
0
0
0
0
0
0
0
0
0
0
0
0
0
0
0
0
0
0
0
0
0
0
0
0
0
0
0
0
0
0
0
0
0
0
0
0
0
0
0
0
0
0
0
0
0
0
0
0
0
0
0
0
0
0
0
0
0
0
0
0
0
0
0
0
0
0
0
0
0
0
0
0
0
0
0
0
0
0
0
0
0
0
0
0
5.55425e-55
6.77113e-53
4.12973e-51
1.68014e-49
5.1296e-48
1.25362e-46
2.55461e-45
4.46468e-44
6.83157e-43
9.29724e-42
1.13943e-40
1.27023e-39
1.29882e-38
1.22662e-37
1.07632e-36
8.82004e-36
6.77999e-35
4.90815e-34
3.3577e-33
2.17744e-32
1.34225e-31
7.88482e-31
4.42394e-30
2.37565e-29
1.22331e-28
6.05093e-28
2.87965e-27
1.32047e-26
5.84239e-26
2.49734e-25
1.03254e-24
4.13392e-24
1.60434e-23
6.04135e-23
2.20941e-22
7.85414e-22
2.71617e-21
9.14505e-21
2.99989e-20
9.59439e-20
2.99369e-19
9.119e-19
2.7133e-18
7.89051e-18
2.24391e-17
6.24345e-17
1.70051e-16
4.53599e-16
1.18551e-15
3.03715e-15
7.63022e-15
1.88059e-14
4.54887e-14
1.08026e-13
2.51958e-13
5.77362e-13
1.30028e-12
2.87893e-12
6.26857e-12
1.3427e-11
2.83004e-11
5.87121e-11
1.19923e-10
2.41233e-10
4.78011e-10
9.33287e-10
1.79587e-09
3.40656e-09
6.37148e-09
1.17529e-08
2.13856e-08
3.83939e-08
6.80231e-08
1.18957e-07
2.05377e-07
3.50121e-07
5.89486e-07
9.80383e-07
1.61088e-06
2.61546e-06
4.19687e-06
6.65685e-06
1.04387e-05
1.61857e-05
2.48192e-05
3.76429e-05
5.64786e-05
8.38406e-05
0.000123157
0.000179042
0.000257638
0.000367012
0.000517639
0.000722951
0.000999964
0.00136997
0.00185928
0.00250001
0.00333089
0.00439798
0.00575541
0.00746595
0.00960138
0.0122427
0.0154799
0.0194116
0.0241442
0.0297903
0.0364673
0.0442948
0.0533921
0.0638753
0.0758536
0.0894257
0.104676
0.121673
0.140461
0.161062
0.183471
0.207653
0.233545
0.261051
0.290048
0.320381
0.351874
0.384323
0.417511
0.451201
0.485153
0.519119
0.552855
0.586122
0.618695
0.650364
0.68094
0.710255
0.73817
0.764569
0.789367
0.812503
0.833947
0.85369
0.871748
0.888158
0.902973
0.916263
0.928109
0.938601
0.947836
0.955914
0.962935
0.969002
0.974211
0.978656
0.982428
0.985608
0.988274
0.990496
0.992337
0.993853
0.995094
0.996105
0.996924
0.997583
0.99811
0.99853
0.998862
0.999124
0.999329
0.999488
0.999612
0.999707
0.99978
0.999835
0.999878
0.999909
0.999933
0.99995
0.999963
0.999972
0.999977
0.99998
0.99998
0.999977
0.99997
0.999959
0.999941
0.999914
0.999876
0.99982
0.999742
0.999633
0.999482
0.999277
0.999
0.99863
0.998141
0.9975
0.996669
0.995602
0.994245
0.992534
0.990399
0.987757
0.98452
0.980588
0.975856
0.97021
0.963533
0.955705
0.946608
0.936125
0.924146
0.910574
0.895324
0.878327
0.859539
0.838938
0.816529
0.792347
0.766455
0.738949
0.709952
0.679619
0.648126
0.615677
0.582489
0.548799
0.514847
0.480881
0.447145
0.413878
0.381305
0.349636
0.31906
0.289745
0.26183
0.235431
0.210633
0.187497
0.166053
0.14631
0.128252
0.111842
0.0970269
0.0837368
0.0718907
0.0613985
0.0521637
0.0440861
0.0370646
0.0309984
0.0257895
0.0213438
0.0175724
0.014392
0.0117259
0.00950407
0.00766335
0.00614721
0.00490561
0.00389466
0.0030762
0.00241732
0.00188989
0.00147004
0.00113768
0.000876019
0.000671153
0.000511625
0.000388071
0.000292894
0.000219966
0.000164384
0.000122243
9.04621e-05
6.66179e-05
4.88211e-05
3.56062e-05
2.58436e-05
1.86682e-05
1.34208e-05
9.60276e-06
6.83849e-06
4.8471e-06
3.41956e-06
2.40123e-06
1.67836e-06
1.16769e-06
8.08679e-07
5.57491e-07
3.8258e-07
2.61359e-07
1.77744e-07
1.20338e-07
8.11092e-08
5.4426e-08
3.63597e-08
2.41836e-08
1.60146e-08
1.05589e-08
6.93159e-09
4.53075e-09
2.94876e-09
1.91095e-09
1.23313e-09
7.92364e-10
5.07e-10
3.23047e-10
2.04978e-10
1.29522e-10
8.15035e-11
5.10764e-11
3.18773e-11
1.98138e-11
1.22656e-11
7.56225e-12
4.64369e-12
2.84011e-12
1.7301e-12
1.04975e-12
6.34422e-13
3.81911e-13
2.29005e-13
1.36783e-13
8.13829e-14
4.82343e-14
2.84778e-14
1.67492e-14
9.81351e-15
5.72805e-15
3.33079e-15
1.92954e-15
1.11361e-15
6.40314e-16
3.6681e-16
2.09355e-16
1.19049e-16
6.74497e-17
3.80758e-17
2.14161e-17
1.20022e-17
6.70225e-18
3.72925e-18
2.06763e-18
1.1423e-18
6.28858e-19
3.4498e-19
1.88587e-19
1.02734e-19
5.57705e-20
3.01711e-20
1.6266e-20
8.73932e-21
4.6794e-21
2.49703e-21
1.32796e-21
7.0385e-22
3.71804e-22
1.95747e-22
1.02713e-22
5.37175e-23
2.80007e-23
1.45476e-23
7.53338e-24
3.88838e-24
2.00049e-24
1.02587e-24
5.24387e-25
2.67186e-25
1.35702e-25
6.87023e-26
3.4672e-26
1.74427e-26
8.74738e-27
4.37301e-27
2.17935e-27
1.08273e-27
5.36249e-28
2.64772e-28
1.30329e-28
6.39557e-29
3.1289e-29
1.5261e-29
7.42096e-30
3.59771e-30
1.73895e-30
8.38006e-31
4.02635e-31
1.92879e-31
9.21244e-32
4.38716e-32
2.08313e-32
9.86227e-33
4.65556e-33
2.19132e-33
1.02845e-33
4.81291e-34
2.24587e-34
1.04501e-34
4.8486e-35
2.24326e-35
1.03494e-35
4.76127e-36
2.1843e-36
9.99277e-37
4.55878e-37
2.07398e-37
9.40931e-38
4.2571e-38
1.92077e-38
8.64266e-39
3.87824e-39
1.73557e-39
7.74588e-40
3.44769e-40
1.53044e-40
6.7755e-41
2.99161e-41
1.31739e-41
5.78589e-42
2.53442e-42
1.10724e-42
4.82467e-43
2.0968e-43
9.08894e-44
3.92954e-44
1.69452e-44
7.28836e-45
3.12678e-45
1.33799e-45
5.71081e-46
2.4313e-46
1.03247e-46
4.3734e-47
1.84785e-47
7.78796e-48
3.27412e-48
1.37304e-48
5.74369e-49
2.39676e-49
9.97665e-50
4.14264e-50
1.71595e-50
7.09038e-51
2.92265e-51
1.2018e-51
4.92984e-52
2.01738e-52
8.23564e-53
3.35403e-53
1.36269e-53
5.52327e-54
2.23339e-54
9.00956e-55
3.62593e-55
1.45584e-55
5.83165e-56
2.33053e-56
9.29195e-57
3.69616e-57
1.46687e-57
5.80803e-58
2.2944e-58
9.04302e-59
3.55604e-59
1.39518e-59
5.46146e-60
2.13306e-60
8.31227e-61
3.23191e-61
1.25379e-61
4.8531e-62
1.87433e-62
7.22286e-63
2.77722e-63
1.0655e-63
4.07886e-64
1.55802e-64
5.93823e-65
2.25836e-65
8.57011e-66
3.24517e-66
1.22617e-66
4.62304e-67
1.73929e-67
6.52959e-68
2.44609e-68
9.14398e-69
3.41095e-69
1.26969e-69
4.71632e-70
1.74821e-70
6.46659e-71
2.38698e-71
8.79256e-72
3.23206e-72
1.18562e-72
4.34021e-73
1.58556e-73
5.78044e-74
2.10305e-74
7.63577e-75
2.76675e-75
1.00047e-75
3.61045e-76
1.30029e-76
4.67352e-77
1.6764e-77
6.00122e-78
2.14405e-78
7.6448e-79
2.72041e-79
9.66149e-80
3.42449e-80
1.21142e-80
4.27699e-81
1.50707e-81
5.30004e-82
1.86029e-82
6.51688e-83
2.27855e-83
7.95129e-84
2.76937e-84
9.62701e-85
3.34019e-85
1.1567e-85
3.99801e-86
1.37925e-86
4.74918e-87
1.63221e-87
5.59904e-88
1.91706e-88
6.55159e-89
2.23483e-89
7.60913e-90
2.58594e-90
8.77197e-91
2.97012e-91
1.0038e-91
3.38631e-92
1.14027e-92
3.83264e-93
1.28586e-93
4.30627e-94
1.43953e-94
4.80347e-95
1.59995e-95
5.31955e-96
1.76549e-96
)
;

boundaryField
{
    sides
    {
        type            zeroGradient;
    }
    empty
    {
        type            empty;
    }
}


// ************************************************************************* //
