/*--------------------------------*- C++ -*----------------------------------*\
| =========                 |                                                 |
| \\      /  F ield         | OpenFOAM: The Open Source CFD Toolbox           |
|  \\    /   O peration     | Version:  2312                                  |
|   \\  /    A nd           | Website:  www.openfoam.com                      |
|    \\/     M anipulation  |                                                 |
\*---------------------------------------------------------------------------*/
FoamFile
{
    version     2.0;
    format      ascii;
    arch        "LSB;label=32;scalar=64";
    class       volScalarField;
    location    "3";
    object      T;
}
// * * * * * * * * * * * * * * * * * * * * * * * * * * * * * * * * * * * * * //

dimensions      [0 0 0 1 0 0 0];

internalField   nonuniform List<scalar> 
1000
(
1.96516e-101
3.73401e-101
8.94903e-101
2.23917e-100
5.6349e-100
1.41754e-99
3.56143e-99
8.93481e-99
2.23825e-98
5.59875e-98
1.3984e-97
3.48763e-97
8.68528e-97
2.1597e-96
5.36235e-96
1.32945e-95
3.29108e-95
8.135e-95
2.00783e-94
4.94815e-94
1.21761e-93
2.99171e-93
7.33968e-93
1.79796e-92
4.39769e-92
1.07402e-91
2.61904e-91
6.37695e-91
1.55032e-90
3.76331e-90
9.12126e-90
2.20737e-89
5.33375e-89
1.28683e-88
3.09989e-88
7.45592e-88
1.79055e-87
4.29342e-87
1.02789e-86
2.45708e-86
5.86433e-86
1.39747e-85
3.325e-85
7.89883e-85
1.87351e-84
4.43682e-84
1.04908e-83
2.47663e-83
5.83758e-83
1.37379e-82
3.22794e-82
7.57259e-82
1.77369e-81
4.14784e-81
9.6845e-81
2.25758e-80
5.25434e-80
1.22096e-79
2.83263e-79
6.56124e-79
1.51735e-78
3.50339e-78
8.07596e-78
1.85866e-77
4.27079e-77
9.79746e-77
2.24397e-76
5.13118e-76
1.17142e-75
2.66995e-75
6.07556e-75
1.38026e-74
3.13061e-74
7.089e-74
1.60262e-73
3.61712e-73
8.15046e-73
1.83352e-72
4.11789e-72
9.23307e-72
2.0668e-71
4.61885e-71
1.0305e-70
2.2953e-70
5.10396e-70
1.13306e-69
2.51115e-69
5.55605e-69
1.22725e-68
2.70626e-68
5.95768e-68
1.30934e-67
2.87275e-67
6.2923e-67
1.3759e-66
3.00349e-66
6.54532e-66
1.42396e-65
3.0926e-65
6.70516e-65
1.45129e-64
3.13585e-64
6.76416e-64
1.45655e-63
3.13107e-63
6.7191e-63
1.4394e-62
3.07823e-62
6.57158e-62
1.40051e-61
2.97954e-61
6.32787e-61
1.34156e-60
2.83925e-60
5.99847e-60
1.26508e-59
2.66338e-59
5.59741e-59
1.1743e-58
2.45926e-58
5.1412e-58
1.0729e-57
2.23503e-57
4.64772e-57
9.64774e-57
1.99912e-56
4.13504e-56
8.53781e-56
1.7597e-55
3.62036e-55
7.43512e-55
1.52421e-54
3.11905e-54
6.37114e-54
1.29906e-53
2.64398e-53
5.37156e-53
1.08932e-52
2.20508e-52
4.45558e-52
8.98656e-52
1.80922e-51
3.63576e-51
7.293e-51
1.46023e-50
2.91837e-50
5.82185e-50
1.15927e-49
2.30412e-49
4.57114e-49
9.05195e-49
1.78919e-48
3.52991e-48
6.95128e-48
1.36634e-47
2.68067e-47
5.24949e-47
1.02608e-46
2.00184e-46
3.89821e-46
7.57679e-46
1.4699e-45
2.84626e-45
5.50099e-45
1.06118e-44
2.0432e-44
3.92657e-44
7.53165e-44
1.44192e-43
2.75529e-43
5.2549e-43
1.0003e-42
1.90051e-42
3.60392e-42
6.82099e-42
1.2885e-41
2.42934e-41
4.57144e-41
8.58579e-41
1.60942e-40
3.01103e-40
5.62239e-40
1.04781e-39
1.94895e-39
3.61803e-39
6.70343e-39
1.23958e-38
2.28771e-38
4.21382e-38
7.7464e-38
1.42125e-37
2.60247e-37
4.75604e-37
8.67458e-37
1.57904e-36
2.86865e-36
5.20116e-36
9.41156e-36
1.69965e-35
3.06332e-35
5.51009e-35
9.8914e-35
1.7721e-34
3.16847e-34
5.65378e-34
1.00683e-33
1.78937e-33
3.17371e-33
5.61772e-33
9.92373e-33
1.74949e-32
3.07799e-32
5.40434e-32
9.46967e-32
1.65594e-31
2.8898e-31
5.03274e-31
8.7469e-31
1.5171e-30
2.62595e-30
4.53593e-30
7.81904e-30
1.34508e-29
2.30911e-29
3.95592e-29
6.7632e-29
1.15387e-28
1.96455e-28
3.33786e-28
5.65941e-28
9.57567e-28
1.61682e-27
2.72427e-27
4.58068e-27
7.68602e-27
1.28695e-26
2.15037e-26
3.58552e-26
5.96591e-26
9.90573e-26
1.64127e-25
2.71367e-25
4.47729e-25
7.37148e-25
1.21108e-24
1.98549e-24
3.24819e-24
5.30262e-24
8.638e-24
1.40414e-23
2.2776e-23
3.68652e-23
5.95423e-23
9.59628e-23
1.54329e-22
2.47662e-22
3.96583e-22
6.33686e-22
1.01036e-21
1.60746e-21
2.55191e-21
4.04248e-21
6.38983e-21
1.00783e-20
1.58614e-20
2.49087e-20
3.90313e-20
6.10277e-20
9.52123e-20
1.48221e-19
2.30236e-19
3.56851e-19
5.51883e-19
8.51632e-19
1.3113e-18
2.01463e-18
3.08839e-18
4.72399e-18
7.20985e-18
1.09795e-17
1.66831e-17
2.52935e-17
3.82629e-17
5.77538e-17
8.69796e-17
1.30703e-16
1.9597e-16
2.93171e-16
4.37606e-16
6.5174e-16
9.68485e-16
1.43595e-15
2.12427e-15
3.1355e-15
4.61771e-15
6.7853e-15
9.94795e-15
1.45519e-14
2.12386e-14
3.09279e-14
4.49358e-14
6.51407e-14
9.42169e-14
1.35963e-13
1.95761e-13
2.8122e-13
4.03068e-13
5.76397e-13
8.22388e-13
1.17069e-12
1.66271e-12
2.35612e-12
3.3311e-12
4.69878e-12
6.61283e-12
9.28527e-12
1.30079e-11
1.81812e-11
2.53536e-11
3.52744e-11
4.89645e-11
6.78114e-11
9.36967e-11
1.29165e-10
1.77649e-10
2.4377e-10
3.33728e-10
4.55829e-10
6.21166e-10
8.44516e-10
1.14552e-09
1.55021e-09
2.09301e-09
2.81933e-09
3.78888e-09
5.08005e-09
6.79542e-09
9.0689e-09
1.20749e-08
1.60399e-08
2.12572e-08
2.81061e-08
3.70752e-08
4.87926e-08
6.40635e-08
8.39179e-08
1.09669e-07
1.42988e-07
1.85995e-07
2.41373e-07
3.12508e-07
4.03661e-07
5.20185e-07
6.68779e-07
8.57811e-07
1.0977e-06
1.4014e-06
1.78493e-06
2.26811e-06
2.87534e-06
3.63663e-06
4.58872e-06
5.77653e-06
7.25481e-06
9.09008e-06
1.1363e-05
1.4171e-05
1.76316e-05
2.18861e-05
2.71036e-05
3.34865e-05
4.12759e-05
5.07584e-05
6.22736e-05
7.62229e-05
9.30791e-05
0.000113398
0.00013783
0.000167136
0.000202201
0.000244054
0.000293884
0.000353066
0.000423181
0.000506042
0.000603725
0.000718595
0.000853341
0.00101101
0.00119505
0.00140932
0.00165818
0.0019465
0.0022797
0.0026638
0.00310548
0.0036121
0.00419177
0.00485337
0.00560658
0.00646196
0.00743094
0.00852586
0.00976
0.0111476
0.0127038
0.0144447
0.0163874
0.0185499
0.020951
0.0236102
0.0265481
0.0297857
0.0333445
0.0372466
0.0415145
0.0461706
0.0512376
0.0567377
0.0626931
0.0691253
0.0760548
0.0835014
0.0914836
0.100018
0.109121
0.118804
0.12908
0.139957
0.151441
0.163536
0.176242
0.189555
0.203471
0.217979
0.233067
0.248717
0.264912
0.281626
0.298833
0.316503
0.334602
0.353094
0.371941
0.3911
0.410526
0.430176
0.45
0.469949
0.489974
0.510025
0.53005
0.55
0.569824
0.589473
0.608899
0.628058
0.646904
0.665396
0.683495
0.701164
0.71837
0.735083
0.751275
0.766924
0.78201
0.796515
0.810427
0.823737
0.836437
0.848525
0.860001
0.870869
0.881133
0.890803
0.899889
0.908403
0.916361
0.923778
0.930673
0.937063
0.942968
0.948409
0.953406
0.957979
0.96215
0.965937
0.969361
0.972441
0.975195
0.97764
0.979792
0.981666
0.983276
0.984632
0.985747
0.986628
0.987282
0.987716
0.987931
0.987931
0.987716
0.987282
0.986628
0.985747
0.984632
0.983276
0.981666
0.979792
0.97764
0.975195
0.972441
0.969361
0.965937
0.96215
0.957979
0.953406
0.948409
0.942968
0.937063
0.930673
0.923778
0.916361
0.908403
0.899889
0.890803
0.881133
0.870869
0.860001
0.848525
0.836437
0.823737
0.810427
0.796515
0.78201
0.766924
0.751275
0.735083
0.71837
0.701164
0.683495
0.665396
0.646904
0.628058
0.608899
0.589473
0.569824
0.55
0.53005
0.510025
0.489974
0.469949
0.45
0.430176
0.410526
0.3911
0.371941
0.353094
0.334602
0.316503
0.298833
0.281626
0.264912
0.248717
0.233067
0.217979
0.203471
0.189555
0.176242
0.163536
0.151441
0.139957
0.12908
0.118804
0.109121
0.100018
0.0914836
0.0835014
0.0760548
0.0691253
0.0626931
0.0567377
0.0512376
0.0461706
0.0415145
0.0372466
0.0333445
0.0297857
0.0265481
0.0236102
0.020951
0.0185499
0.0163874
0.0144447
0.0127038
0.0111476
0.00976
0.00852586
0.00743094
0.00646196
0.00560658
0.00485337
0.00419177
0.0036121
0.00310548
0.0026638
0.0022797
0.0019465
0.00165818
0.00140932
0.00119505
0.00101101
0.000853341
0.000718595
0.000603725
0.000506042
0.000423181
0.000353066
0.000293884
0.000244054
0.000202201
0.000167136
0.00013783
0.000113398
9.30791e-05
7.62229e-05
6.22736e-05
5.07584e-05
4.12759e-05
3.34865e-05
2.71036e-05
2.18861e-05
1.76316e-05
1.4171e-05
1.1363e-05
9.09008e-06
7.25481e-06
5.77653e-06
4.58872e-06
3.63663e-06
2.87534e-06
2.26811e-06
1.78493e-06
1.4014e-06
1.0977e-06
8.57811e-07
6.68779e-07
5.20185e-07
4.03661e-07
3.12508e-07
2.41373e-07
1.85995e-07
1.42988e-07
1.09669e-07
8.39179e-08
6.40635e-08
4.87926e-08
3.70752e-08
2.81061e-08
2.12572e-08
1.60399e-08
1.20749e-08
9.0689e-09
6.79542e-09
5.08005e-09
3.78888e-09
2.81933e-09
2.09301e-09
1.55021e-09
1.14552e-09
8.44516e-10
6.21166e-10
4.55829e-10
3.33728e-10
2.4377e-10
1.77649e-10
1.29165e-10
9.36967e-11
6.78114e-11
4.89645e-11
3.52744e-11
2.53536e-11
1.81812e-11
1.30079e-11
9.28527e-12
6.61283e-12
4.69878e-12
3.3311e-12
2.35612e-12
1.66271e-12
1.17069e-12
8.22388e-13
5.76397e-13
4.03068e-13
2.8122e-13
1.95761e-13
1.35963e-13
9.42169e-14
6.51407e-14
4.49358e-14
3.09279e-14
2.12386e-14
1.45519e-14
9.94795e-15
6.7853e-15
4.61771e-15
3.1355e-15
2.12427e-15
1.43595e-15
9.68485e-16
6.5174e-16
4.37606e-16
2.93171e-16
1.9597e-16
1.30703e-16
8.69796e-17
5.77538e-17
3.82629e-17
2.52935e-17
1.66831e-17
1.09795e-17
7.20985e-18
4.72399e-18
3.08839e-18
2.01463e-18
1.3113e-18
8.51632e-19
5.51883e-19
3.56851e-19
2.30236e-19
1.48221e-19
9.52123e-20
6.10277e-20
3.90313e-20
2.49087e-20
1.58614e-20
1.00783e-20
6.38983e-21
4.04248e-21
2.55191e-21
1.60746e-21
1.01036e-21
6.33686e-22
3.96583e-22
2.47662e-22
1.54329e-22
9.59628e-23
5.95423e-23
3.68652e-23
2.2776e-23
1.40414e-23
8.638e-24
5.30262e-24
3.24819e-24
1.98549e-24
1.21108e-24
7.37148e-25
4.47729e-25
2.71367e-25
1.64127e-25
9.90573e-26
5.96591e-26
3.58552e-26
2.15037e-26
1.28695e-26
7.68602e-27
4.58068e-27
2.72427e-27
1.61682e-27
9.57567e-28
5.65941e-28
3.33786e-28
1.96455e-28
1.15387e-28
6.7632e-29
3.95592e-29
2.30911e-29
1.34508e-29
7.81904e-30
4.53593e-30
2.62595e-30
1.5171e-30
8.7469e-31
5.03274e-31
2.8898e-31
1.65594e-31
9.46967e-32
5.40434e-32
3.07799e-32
1.74949e-32
9.92373e-33
5.61772e-33
3.17371e-33
1.78937e-33
1.00683e-33
5.65378e-34
3.16847e-34
1.7721e-34
9.8914e-35
5.51009e-35
3.06332e-35
1.69965e-35
9.41156e-36
5.20116e-36
2.86865e-36
1.57904e-36
8.67458e-37
4.75604e-37
2.60247e-37
1.42125e-37
7.7464e-38
4.21382e-38
2.28771e-38
1.23958e-38
6.70343e-39
3.61803e-39
1.94895e-39
1.04781e-39
5.62239e-40
3.01103e-40
1.60942e-40
8.58579e-41
4.57144e-41
2.42934e-41
1.2885e-41
6.82099e-42
3.60392e-42
1.90051e-42
1.0003e-42
5.2549e-43
2.75529e-43
1.44192e-43
7.53165e-44
3.92657e-44
2.0432e-44
1.06118e-44
5.50099e-45
2.84626e-45
1.4699e-45
7.57679e-46
3.89821e-46
2.00184e-46
1.02608e-46
5.24949e-47
2.68067e-47
1.36634e-47
6.95128e-48
3.52991e-48
1.78919e-48
9.05195e-49
4.57114e-49
2.30412e-49
1.15927e-49
5.82185e-50
2.91837e-50
1.46023e-50
7.293e-51
3.63576e-51
1.80922e-51
8.98656e-52
4.45558e-52
2.20508e-52
1.08932e-52
5.37156e-53
2.64398e-53
1.29906e-53
6.37114e-54
3.11905e-54
1.52421e-54
7.43512e-55
3.62036e-55
1.7597e-55
8.53781e-56
4.13504e-56
1.99912e-56
9.64774e-57
4.64772e-57
2.23503e-57
1.0729e-57
5.1412e-58
2.45926e-58
1.1743e-58
5.59741e-59
2.66338e-59
1.26508e-59
5.99847e-60
2.83925e-60
1.34156e-60
6.32787e-61
2.97954e-61
1.40051e-61
6.57158e-62
3.07823e-62
1.4394e-62
6.7191e-63
3.13107e-63
1.45655e-63
6.76416e-64
3.13585e-64
1.45129e-64
6.70516e-65
3.0926e-65
1.42396e-65
6.54532e-66
3.00349e-66
1.3759e-66
6.2923e-67
2.87275e-67
1.30934e-67
5.95768e-68
2.70626e-68
1.22725e-68
5.55605e-69
2.51115e-69
1.13306e-69
5.10396e-70
2.2953e-70
1.0305e-70
4.61885e-71
2.0668e-71
9.23307e-72
4.11789e-72
1.83352e-72
8.15046e-73
3.61712e-73
1.60262e-73
7.089e-74
3.13061e-74
1.38026e-74
6.07556e-75
2.66995e-75
1.17142e-75
5.13118e-76
2.24397e-76
9.79746e-77
4.27079e-77
1.85866e-77
8.07596e-78
3.50339e-78
1.51735e-78
6.56124e-79
2.83263e-79
1.22096e-79
5.25434e-80
2.25758e-80
9.6845e-81
4.14784e-81
1.77369e-81
7.57259e-82
3.22794e-82
1.37379e-82
5.83758e-83
2.47663e-83
1.04908e-83
4.43682e-84
1.87351e-84
7.89883e-85
3.325e-85
1.39747e-85
5.86433e-86
2.45708e-86
1.02789e-86
4.29342e-87
1.79055e-87
7.45592e-88
3.09989e-88
1.28683e-88
5.33375e-89
2.20737e-89
9.12126e-90
3.76331e-90
1.55032e-90
6.37695e-91
2.61904e-91
1.07402e-91
4.39769e-92
1.79796e-92
7.33968e-93
2.99171e-93
1.21761e-93
4.94815e-94
2.00783e-94
8.135e-95
3.29108e-95
1.32945e-95
5.36235e-96
2.1597e-96
8.68528e-97
3.48763e-97
1.3984e-97
5.59875e-98
2.23825e-98
8.93481e-99
3.56143e-99
1.41754e-99
5.6349e-100
2.23917e-100
8.94903e-101
3.73401e-101
1.96516e-101
)
;

boundaryField
{
    sides
    {
        type            zeroGradient;
    }
    empty
    {
        type            empty;
    }
}


// ************************************************************************* //
