/*--------------------------------*- C++ -*----------------------------------*\
| =========                 |                                                 |
| \\      /  F ield         | OpenFOAM: The Open Source CFD Toolbox           |
|  \\    /   O peration     | Version:  2312                                  |
|   \\  /    A nd           | Website:  www.openfoam.com                      |
|    \\/     M anipulation  |                                                 |
\*---------------------------------------------------------------------------*/
FoamFile
{
    version     2.0;
    format      ascii;
    arch        "LSB;label=32;scalar=64";
    class       volScalarField;
    location    "2.6";
    object      T;
}
// * * * * * * * * * * * * * * * * * * * * * * * * * * * * * * * * * * * * * //

dimensions      [0 0 0 1 0 0 0];

internalField   nonuniform List<scalar> 
1000
(
0
0
0
0
0
0
0
0
0
0
0
0
0
0
0
0
0
0
0
0
4.94066e-323
-5.2371e-322
5.69658e-321
-6.36208e-320
7.08184e-319
-7.85597e-318
8.68789e-317
-9.57811e-316
1.05267e-314
-1.15332e-313
1.25964e-312
-1.37145e-311
1.48849e-310
-1.61044e-309
1.73688e-308
-1.86731e-307
2.00117e-306
-2.1378e-305
2.27647e-304
-2.41638e-303
2.55667e-302
-2.69641e-301
2.83461e-300
-2.97027e-299
3.10234e-298
-3.22974e-297
3.35143e-296
-3.46633e-295
3.57343e-294
-3.67174e-293
3.76032e-292
-3.83833e-291
3.90497e-290
-3.95957e-289
4.00157e-288
-4.03051e-287
4.04605e-286
-4.04801e-285
4.03634e-284
-4.01109e-283
3.97251e-282
-3.92092e-281
3.85682e-280
-3.7808e-279
3.69357e-278
-3.59595e-277
3.48884e-276
-3.37322e-275
3.25011e-274
-3.1206e-273
2.9858e-272
-2.84682e-271
2.70478e-270
-2.56077e-269
2.41587e-268
-2.27109e-267
2.12739e-266
-1.98569e-265
1.84679e-264
-1.71144e-263
1.5803e-262
-1.45394e-261
1.33284e-260
-1.21738e-259
1.10787e-258
-1.00452e-257
9.07466e-257
-8.16771e-256
7.32423e-255
-6.54351e-254
5.82425e-253
-5.1647e-252
4.56268e-251
-4.01569e-250
3.52093e-249
-3.07545e-248
2.67613e-247
-2.31978e-246
2.00319e-245
-1.72316e-244
1.47657e-243
-1.26038e-242
1.07166e-241
-9.0765e-241
7.65736e-240
-6.43476e-239
5.38606e-238
-4.49045e-237
3.72891e-236
-3.08419e-235
2.54074e-234
-2.08464e-233
1.70353e-232
-1.38646e-231
1.12383e-230
-9.07225e-230
7.29374e-229
-5.83978e-228
4.65636e-227
-3.69738e-226
2.92369e-225
-2.30224e-224
1.80527e-223
-1.40962e-222
1.09603e-221
-8.4858e-221
6.54194e-220
-5.02175e-219
3.83823e-218
-2.92096e-217
2.21326e-216
-1.66971e-215
1.25413e-214
-9.3784e-214
6.9822e-213
-5.17515e-212
3.81868e-211
-2.80513e-210
2.05131e-209
-1.49329e-208
1.08212e-207
-7.80587e-207
5.60492e-206
-4.00599e-205
2.84993e-204
-2.01804e-203
1.4223e-202
-9.97704e-202
6.96555e-201
-4.83995e-200
3.34693e-199
-2.30336e-198
1.57752e-197
-1.07517e-196
7.29214e-196
-4.92149e-195
3.30515e-194
-2.20865e-193
1.46855e-192
-9.7156e-192
6.39519e-191
-4.18821e-190
2.72886e-189
-1.76889e-188
1.1407e-187
-7.31778e-187
4.66995e-186
-2.96453e-185
1.87196e-184
-1.17576e-183
7.34527e-183
-4.56403e-182
2.82051e-181
-1.73351e-180
1.05957e-179
-6.4406e-179
3.89308e-178
-2.34001e-177
1.39856e-176
-8.31123e-176
4.91082e-175
-2.88489e-174
1.68489e-173
-9.78278e-173
5.64655e-172
-3.23976e-171
1.84771e-170
-1.04742e-169
5.90147e-169
-3.30465e-168
1.83905e-167
-1.01706e-166
5.5893e-166
-3.05214e-165
1.65601e-164
-8.9271e-164
4.781e-163
-2.54368e-162
1.34436e-161
-7.05751e-161
3.67994e-160
-1.9057e-159
9.80085e-159
-5.00539e-158
2.53831e-157
-1.27807e-156
6.38894e-156
-3.17057e-155
1.56187e-154
-7.63681e-154
3.70598e-153
-1.78475e-152
8.52897e-152
-4.04405e-151
1.90237e-150
-8.87744e-150
4.10909e-149
-1.88635e-148
8.58748e-148
-3.87636e-147
1.73477e-146
-7.69595e-146
3.38396e-145
-1.47458e-144
6.36685e-144
-2.7235e-143
1.15399e-142
-4.84255e-142
2.01216e-141
-8.27716e-141
3.3701e-140
-1.35784e-139
5.41252e-139
-2.13396e-138
8.31944e-138
-3.20625e-137
1.22113e-136
-4.5946e-136
1.70724e-135
-6.26228e-135
2.26661e-134
-8.0914e-134
2.84739e-133
-9.87176e-133
3.36967e-132
-1.13163e-131
3.73586e-131
-1.21122e-130
3.85232e-130
-1.20037e-129
3.65856e-129
-1.08861e-128
3.1546e-128
-8.8751e-128
2.41405e-127
-6.31154e-127
1.57252e-126
-3.68234e-126
7.90486e-126
-1.4739e-125
2.02131e-125
-1.28288e-126
-1.28336e-124
6.33961e-124
-2.22031e-123
6.49761e-123
-1.64414e-122
3.54017e-122
-5.92265e-122
4.56795e-122
1.7605e-121
-1.12132e-120
4.04149e-120
-1.12717e-119
2.51784e-119
-4.09795e-119
2.11339e-119
1.72229e-118
-9.09053e-118
2.92654e-117
-7.04545e-117
1.2007e-116
-6.85605e-117
-4.7903e-116
2.51347e-115
-7.70587e-115
1.67031e-114
-2.12888e-114
-1.75637e-114
2.10274e-113
-7.6347e-113
1.81511e-112
-2.58828e-112
-1.00302e-112
2.05726e-111
-7.66686e-111
1.76779e-110
-2.17937e-110
-2.57458e-110
2.39224e-109
-7.72272e-109
1.48875e-108
-8.75194e-109
-6.01597e-108
2.83966e-107
-6.95966e-107
8.33744e-107
1.24579e-106
-9.82394e-106
2.83623e-105
-4.23931e-105
-2.26862e-105
3.45097e-104
-1.09354e-103
1.74558e-103
6.09849e-104
-1.29173e-102
4.11293e-102
-6.23369e-102
-3.94633e-102
5.16974e-101
-1.5024e-100
1.8661e-100
2.98334e-100
-2.12342e-99
5.1325e-99
-3.74687e-99
-1.91194e-98
8.38909e-98
-1.50338e-97
-3.43543e-98
1.0157e-96
-2.93962e-96
2.91534e-96
8.79612e-96
-4.41053e-95
7.94972e-95
2.7724e-95
-5.57102e-94
1.46343e-93
-9.21585e-94
-6.06197e-93
2.27516e-92
-2.82956e-92
-5.55806e-92
3.21667e-91
-5.56486e-91
-3.80278e-91
4.30461e-90
-9.28648e-90
-6.43789e-91
5.6131e-89
-1.42345e-88
3.90033e-89
7.3098e-88
-2.07627e-87
9.49036e-88
9.70466e-87
-2.93396e-86
1.51584e-86
1.33114e-85
-4.04699e-85
1.87457e-85
1.89088e-84
-5.4448e-84
1.60041e-84
2.75594e-83
-7.08065e-83
-6.17976e-85
4.04882e-82
-8.72899e-82
-4.31661e-82
5.86438e-81
-9.82514e-81
-1.28348e-80
8.16915e-80
-9.26876e-80
-2.74607e-79
1.06213e-78
-5.29004e-79
-4.92876e-78
1.23216e-77
4.38818e-78
-7.67741e-77
1.15957e-76
2.17085e-76
-1.02937e-75
6.06855e-76
4.63599e-75
-1.12711e-74
-6.5343e-75
7.28233e-74
-8.34137e-74
-2.64378e-73
8.76782e-73
6.99542e-74
-4.88789e-72
7.04688e-72
1.60148e-71
-6.18023e-71
2.82695e-72
3.30039e-70
-4.77901e-70
-1.11919e-69
4.08627e-69
5.679e-70
-2.26412e-68
2.60447e-68
8.80681e-68
-2.47852e-67
-1.67691e-67
1.51643e-66
-8.81502e-67
-7.01878e-66
1.25275e-65
2.32703e-65
-9.09739e-65
-2.66588e-65
5.04746e-64
-3.67701e-64
-2.27781e-63
4.10297e-63
8.02651e-63
-2.86603e-62
-1.61658e-62
1.62497e-61
-5.34634e-62
-7.94956e-61
9.09458e-61
3.38416e-60
-7.21235e-60
-1.20855e-59
4.54181e-59
3.06828e-59
-2.51684e-58
4.31246e-60
1.27503e-57
-7.76095e-58
-6.00688e-57
7.1974e-57
2.64978e-56
-4.94565e-56
-1.0936e-55
2.97524e-55
4.18089e-55
-1.65604e-54
-1.44095e-54
8.75731e-54
4.15297e-54
-4.46882e-53
-7.2506e-54
2.22392e-52
-2.03508e-53
-1.08784e-51
3.25027e-52
5.26281e-51
-2.44091e-51
-2.53068e-50
1.48442e-50
1.21423e-49
-8.07427e-50
-5.82901e-49
4.05955e-49
2.80393e-48
-1.90465e-48
-1.35172e-47
8.29192e-48
6.52293e-47
-3.26538e-47
-3.14312e-46
1.07992e-46
1.50675e-45
-2.18625e-46
-7.15123e-45
-6.70824e-46
3.33991e-44
1.25495e-44
-1.52316e-43
-1.08127e-43
6.71357e-43
7.50178e-43
-2.81753e-42
-4.63286e-42
1.09837e-41
2.63449e-41
-3.78399e-41
-1.39674e-40
1.00091e-40
6.91685e-40
-6.43556e-41
-3.17922e-39
-1.64465e-39
1.33359e-38
1.61176e-38
-4.91509e-38
-1.06549e-37
1.43752e-37
5.82321e-37
-1.98217e-37
-2.74493e-36
-1.32508e-36
1.10579e-35
1.5207e-35
-3.5522e-35
-9.84034e-35
6.61585e-35
4.91976e-34
1.80185e-34
-1.96544e-33
-2.73875e-33
5.72611e-33
1.77732e-32
-5.8456e-33
-8.26974e-32
-6.60373e-32
2.7945e-31
6.01271e-31
-4.88268e-31
-3.13008e-30
-1.71199e-30
1.1108e-29
2.10812e-29
-1.98589e-29
-1.13905e-28
-6.65123e-29
3.85699e-28
7.98379e-28
-5.00029e-28
-3.99542e-27
-3.59898e-27
1.12395e-26
3.1127e-26
1.15096e-28
-1.26608e-25
-1.92908e-25
2.15523e-25
1.11547e-24
8.96798e-25
-3.04099e-24
-8.52535e-24
-1.87608e-24
3.08001e-23
5.93285e-23
-2.06566e-23
-2.69574e-22
-3.89453e-22
3.68509e-22
2.17982e-21
2.50377e-21
-3.88705e-21
-1.68703e-20
-1.65167e-20
3.36799e-20
1.27565e-19
1.17341e-19
-2.57019e-19
-9.51209e-19
-9.19659e-19
1.73768e-18
6.97951e-18
7.79461e-18
-9.90985e-18
-4.96701e-17
-6.80225e-17
3.85421e-17
3.32939e-16
5.80573e-16
5.46925e-17
-1.99087e-15
-4.63211e-15
-3.22064e-15
9.35826e-15
3.29304e-14
4.25298e-14
-1.81604e-14
-1.93146e-13
-3.92569e-13
-2.57381e-13
7.54536e-13
2.72406e-12
4.03371e-12
5.1785e-13
-1.25873e-11
-3.32305e-11
-4.07739e-11
9.32062e-12
1.61586e-10
3.84811e-10
4.57412e-10
-8.68583e-11
-1.74557e-09
-4.34096e-09
-5.85649e-09
-1.55834e-09
1.48261e-08
4.54568e-08
7.70348e-08
6.72975e-08
-5.81704e-08
-3.76073e-07
-8.76644e-07
-1.30848e-06
-1.00451e-06
1.16708e-06
6.468e-06
1.52458e-05
2.4951e-05
2.73865e-05
6.1708e-06
-6.33891e-05
-0.000208427
-0.000441979
-0.000731035
-0.000946166
-0.000793688
0.000262459
0.00307455
0.00885929
0.0191957
0.03595
0.0611141
0.0965621
0.143747
0.203384
0.27518
0.357667
0.448199
0.543126
0.638145
0.728779
0.8109
0.881219
0.937647
0.979474
1.00734
1.02299
1.02895
1.02806
1.02308
1.0164
1.00976
1.00428
1.00043
0.99824
0.997403
0.997495
0.998081
0.998814
0.999466
0.999927
1.00018
1.00026
1.00024
1.00017
1.00009
1.00003
0.999988
0.999974
0.999974
0.999982
0.999991
0.999998
1
1
1
1
1
1
1
1
1
1
1
1
1
1
1
1
1
1
1
1
1
1
1
1
1
1
1
1
1
1
1
1
1
1
1
1
1
1
1
1
1
0.999999
0.999994
0.999985
0.999975
0.999973
0.999994
1.00006
1.00021
1.00044
1.00073
1.00095
1.00079
0.999738
0.996925
0.991141
0.980804
0.96405
0.938886
0.903438
0.856253
0.796616
0.72482
0.642333
0.551801
0.456874
0.361855
0.271221
0.1891
0.118781
0.0623533
0.0205256
-0.00733705
-0.0229908
-0.0289491
-0.0280574
-0.0230844
-0.0163973
-0.0097616
-0.00427751
-0.000433062
0.00176049
0.00259662
0.0025054
0.00191911
0.00118622
0.000534489
7.31372e-05
-0.000180478
-0.000264915
-0.000241027
-0.000167483
-8.74653e-05
-2.5044e-05
1.2002e-05
2.64724e-05
2.5904e-05
1.82112e-05
9.30344e-06
2.41368e-06
-1.48395e-06
-2.81058e-06
-2.54087e-06
-1.6215e-06
-6.95317e-07
-6.13013e-08
2.36995e-07
2.88481e-07
2.14102e-07
1.09625e-07
2.7552e-08
-1.66929e-08
-2.94095e-08
-2.42909e-08
-1.34809e-08
-4.16794e-09
1.15192e-09
2.88213e-09
2.50597e-09
1.41494e-09
4.46052e-10
-1.06284e-10
-2.81602e-10
-2.40376e-10
-1.30277e-10
-3.65582e-11
1.37449e-11
2.73013e-11
2.13766e-11
1.04578e-11
2.10858e-12
-1.84886e-12
-2.53441e-12
-1.72397e-12
-7.03333e-13
-3.67188e-14
2.18087e-13
2.15275e-13
1.21233e-13
3.53678e-14
-1.0195e-14
-2.1585e-14
-1.59785e-14
-6.93528e-15
-7.33286e-16
1.70956e-15
1.76368e-15
9.79691e-16
2.69032e-16
-9.14586e-17
-1.68709e-16
-1.15862e-16
-4.44811e-17
-3.44445e-19
1.41407e-17
1.21256e-17
5.71426e-18
9.37147e-19
-1.0308e-18
-1.1565e-18
-6.36427e-19
-1.64332e-19
6.29168e-20
1.02516e-19
6.42818e-20
2.07881e-20
-2.80628e-21
-8.57897e-21
-6.03565e-21
-2.24099e-21
2.46195e-23
6.87566e-22
5.35289e-22
2.17646e-22
1.30176e-23
-5.35248e-23
-4.53438e-23
-1.9546e-23
-1.96987e-24
4.10271e-24
3.69761e-24
1.64612e-24
2.00094e-25
-3.1323e-25
-2.91763e-25
-1.31015e-25
-1.6569e-26
2.39873e-26
2.23363e-26
9.8902e-27
1.16008e-27
-1.84398e-27
-1.65977e-27
-7.08406e-28
-6.6702e-29
1.4154e-28
1.19519e-28
4.80176e-29
2.66469e-30
-1.07477e-29
-8.31243e-30
-3.06111e-30
8.57724e-33
7.98796e-31
5.55645e-31
1.81477e-31
-1.63163e-32
-5.75214e-32
-3.54708e-32
-9.80079e-33
2.22892e-33
3.97729e-33
2.14464e-33
4.62001e-34
-2.19939e-34
-2.61953e-34
-1.21435e-34
-1.69171e-35
1.83795e-35
1.63067e-35
6.33045e-36
2.37181e-37
-1.36602e-36
-9.51202e-37
-2.94847e-37
3.43072e-38
9.2072e-38
5.14141e-38
1.14801e-38
-4.66933e-39
-5.66812e-39
-2.53145e-39
-2.97262e-40
3.95812e-40
3.18585e-40
1.10064e-40
-3.60084e-42
-2.7298e-41
-1.62277e-41
-3.93392e-42
1.21199e-42
1.63231e-42
7.35865e-43
8.88855e-44
-1.0886e-43
-8.62025e-44
-2.85345e-44
1.60063e-45
7.21703e-45
4.0099e-45
8.45554e-46
-3.61258e-46
-3.98907e-46
-1.60373e-46
-9.88468e-48
2.84217e-47
1.89262e-47
5.13216e-48
-9.8638e-49
-1.66149e-48
-7.64663e-49
-9.78827e-50
1.02794e-49
8.00137e-50
2.49538e-50
-2.15674e-51
-6.38609e-51
-3.22026e-51
-5.33956e-52
3.52992e-52
3.09525e-52
1.03993e-52
-3.76375e-54
-2.30917e-53
-1.22387e-53
-2.24231e-54
1.18933e-54
1.11037e-54
3.82119e-55
-7.53343e-57
-7.95456e-56
-4.24519e-56
-7.79051e-57
4.01648e-57
3.71869e-57
1.25216e-57
-3.75787e-59
-2.62171e-58
-1.34932e-58
-2.26701e-59
1.35847e-59
1.16337e-59
3.66042e-60
-2.46244e-61
-8.23438e-61
-3.9216e-61
-5.36021e-62
4.50709e-62
3.38373e-62
9.44622e-63
-1.31593e-63
-2.43956e-63
-1.03373e-63
-9.05249e-65
1.42615e-64
9.06517e-65
2.09463e-65
-5.66945e-66
-6.72435e-66
-2.43315e-66
-3.5331e-68
4.19665e-67
2.20649e-67
3.73323e-68
-2.03882e-68
-1.69778e-68
-4.97062e-69
4.9508e-70
1.12602e-69
4.78399e-70
4.21642e-71
-6.2611e-71
-3.85772e-71
-8.29993e-72
2.57306e-72
2.71011e-72
8.94933e-73
-2.5213e-74
-1.65966e-73
-7.71118e-74
-9.42081e-75
8.52397e-75
5.75253e-75
1.35357e-75
-3.14672e-76
-3.80289e-76
-1.30707e-76
8.93664e-78
)
;

boundaryField
{
    sides
    {
        type            zeroGradient;
    }
    empty
    {
        type            empty;
    }
}


// ************************************************************************* //
