/*--------------------------------*- C++ -*----------------------------------*\
| =========                 |                                                 |
| \\      /  F ield         | OpenFOAM: The Open Source CFD Toolbox           |
|  \\    /   O peration     | Version:  2312                                  |
|   \\  /    A nd           | Website:  www.openfoam.com                      |
|    \\/     M anipulation  |                                                 |
\*---------------------------------------------------------------------------*/
FoamFile
{
    version     2.0;
    format      ascii;
    arch        "LSB;label=32;scalar=64";
    class       volScalarField;
    location    "2.5";
    object      T;
}
// * * * * * * * * * * * * * * * * * * * * * * * * * * * * * * * * * * * * * //

dimensions      [0 0 0 1 0 0 0];

internalField   nonuniform List<scalar> 
1000
(
0
0
0
0
0
0
0
0
0
0
0
0
0
0
0
0
0
0
0
0
0
0
0
0
0
-5.92879e-323
7.01573e-322
-8.11256e-321
9.39466e-320
-1.08404e-318
1.24678e-317
-1.42946e-316
1.63377e-315
-1.86141e-314
2.11408e-313
-2.39347e-312
2.70119e-311
-3.03881e-310
3.40773e-309
-3.80926e-308
4.24448e-307
-4.71425e-306
5.21918e-305
-5.75957e-304
6.33537e-303
-6.94615e-302
7.59108e-301
-8.26886e-300
8.97775e-299
-9.7155e-298
1.04794e-296
-1.12661e-295
1.20718e-294
-1.28925e-293
1.37232e-292
-1.45588e-291
1.53938e-290
-1.62222e-289
1.70379e-288
-1.78343e-287
1.86051e-286
-1.93434e-285
2.00429e-284
-2.0697e-283
2.12996e-282
-2.18447e-281
2.23269e-280
-2.27412e-279
2.30832e-278
-2.33494e-277
2.35366e-276
-2.36427e-275
2.36664e-274
-2.36071e-273
2.34653e-272
-2.32422e-271
2.29399e-270
-2.25613e-269
2.211e-268
-2.15905e-267
2.10078e-266
-2.03675e-265
1.96757e-264
-1.89387e-263
1.81634e-262
-1.73565e-261
1.65249e-260
-1.56758e-259
1.48157e-258
-1.39512e-257
1.30888e-256
-1.22341e-255
1.13928e-254
-1.05698e-253
9.76952e-253
-8.99597e-252
8.25249e-251
-7.54184e-250
6.86627e-249
-6.22743e-248
5.62647e-247
-5.06403e-246
4.5403e-245
-4.05503e-244
3.60761e-243
-3.19709e-242
2.82224e-241
-2.48159e-240
2.1735e-239
-1.89615e-238
1.64765e-237
-1.42604e-236
1.22931e-235
-1.05549e-234
9.02605e-234
-7.68757e-233
6.5211e-232
-5.50916e-231
4.63529e-230
-3.88407e-229
3.24124e-228
-2.69364e-227
2.22929e-226
-1.83733e-225
1.50796e-224
-1.23245e-223
1.00304e-222
-8.12885e-222
6.55986e-221
-5.27116e-220
4.21752e-219
-3.36e-218
2.66529e-217
-2.10506e-216
1.65535e-215
-1.29604e-214
1.01026e-213
-7.84028e-213
6.05763e-212
-4.6595e-211
3.56806e-210
-2.72003e-209
2.0642e-208
-1.55941e-207
1.1727e-206
-8.77865e-206
6.54137e-205
-4.85178e-204
3.58193e-203
-2.63212e-202
1.92511e-201
-1.40139e-200
1.01533e-199
-7.32123e-199
5.25393e-198
-3.75228e-197
2.66691e-196
-1.88629e-195
1.32767e-194
-9.29901e-194
6.48097e-193
-4.49457e-192
3.10148e-191
-2.12947e-190
1.45473e-189
-9.88754e-189
6.6862e-188
-4.49824e-187
3.01067e-186
-2.00461e-185
1.32779e-184
-8.74881e-184
5.7342e-183
-3.73842e-182
2.42427e-181
-1.56364e-180
1.00309e-179
-6.39996e-179
4.061e-178
-2.56266e-177
1.60819e-176
-1.00359e-175
6.22768e-175
-3.8427e-174
2.35759e-173
-1.43815e-172
8.72222e-172
-5.25919e-171
3.15255e-170
-1.87861e-169
1.11282e-168
-6.55246e-168
3.83495e-167
-2.23084e-166
1.28976e-165
-7.41078e-165
4.23163e-164
-2.40115e-163
1.35387e-162
-7.58505e-162
4.22219e-161
-2.33503e-160
1.28291e-159
-7.00202e-159
3.79621e-158
-2.04432e-157
1.09343e-156
-5.80829e-156
3.06403e-155
-1.60508e-154
8.34881e-154
-4.31169e-153
2.21072e-152
-1.12525e-151
5.68538e-151
-2.85121e-150
1.41913e-149
-7.00967e-149
3.43574e-148
-1.67089e-147
8.06191e-147
-3.85877e-146
1.83204e-145
-8.62679e-145
4.0285e-144
-1.86538e-143
8.56385e-143
-3.89756e-142
1.75826e-141
-7.86102e-141
3.48273e-140
-1.52876e-139
6.64767e-139
-2.86312e-138
1.22116e-137
-5.15694e-137
2.15581e-136
-8.91956e-136
3.65169e-135
-1.47898e-134
5.92441e-134
-2.34653e-133
9.18726e-133
-3.55463e-132
1.35866e-131
-5.1284e-131
1.91094e-130
-7.02623e-130
2.54809e-129
-9.10975e-129
3.20892e-128
-1.11302e-127
3.79874e-127
-1.27476e-126
4.20225e-126
-1.3594e-125
4.31023e-125
-1.33756e-124
4.05534e-124
-1.19869e-123
3.44483e-123
-9.59084e-123
2.57434e-122
-6.61576e-122
1.61059e-121
-3.6486e-121
7.42989e-121
-1.24906e-120
1.20623e-120
2.40357e-120
-1.97543e-119
7.9877e-119
-2.54289e-118
6.90557e-118
-1.61107e-117
3.07703e-117
-3.87715e-117
-2.10061e-117
3.52978e-116
-1.49714e-115
4.57875e-115
-1.11522e-114
2.07939e-114
-2.12006e-114
-4.03314e-114
3.18342e-113
-1.15162e-112
3.01599e-112
-5.76248e-112
5.59113e-112
1.30431e-111
-9.22756e-111
3.10738e-110
-7.2704e-110
1.07357e-109
1.61543e-110
-7.55759e-109
3.02864e-108
-7.63818e-108
1.19089e-107
2.98172e-109
-7.70098e-107
3.06918e-106
-7.33765e-106
9.58036e-106
8.78591e-106
-9.48306e-105
3.12167e-104
-6.04303e-104
3.46463e-104
2.48073e-103
-1.15254e-102
2.7607e-102
-3.05329e-102
-5.9716e-102
4.09171e-101
-1.11653e-100
1.48808e-100
1.59653e-100
-1.49038e-99
4.27565e-99
-5.77842e-99
-6.27712e-99
5.72728e-98
-1.57634e-97
1.84227e-97
3.45136e-97
-2.28356e-96
5.47503e-96
-4.10242e-96
-1.99602e-95
8.97038e-95
-1.67299e-94
-1.04025e-95
1.04643e-93
-3.22186e-93
3.71e-93
7.97492e-93
-4.67489e-92
9.3952e-92
-2.14241e-93
-5.56627e-91
1.65907e-90
-1.53868e-90
-5.42435e-90
2.47859e-89
-3.84954e-89
-3.82517e-89
3.3538e-88
-7.05053e-88
-4.15664e-89
4.27237e-87
-1.12916e-86
5.07869e-87
5.28367e-86
-1.68385e-85
1.28257e-85
6.53869e-85
-2.41352e-84
2.27766e-84
8.34792e-84
-3.38462e-83
3.43807e-83
1.12642e-82
-4.68326e-82
4.59901e-82
1.6186e-81
-6.39651e-81
5.38001e-81
2.44466e-80
-8.56036e-80
5.0233e-80
3.77904e-79
-1.10495e-78
2.19669e-79
5.80301e-78
-1.33839e-77
-5.14527e-78
8.60489e-77
-1.44558e-76
-1.96109e-76
1.19754e-75
-1.22614e-75
-4.35184e-75
1.5085e-74
-3.89413e-75
-7.68226e-74
1.61276e-73
1.37174e-73
-1.13593e-72
1.22155e-72
4.17176e-72
-1.37977e-71
7.79675e-74
7.56464e-71
-1.2295e-70
-2.17878e-70
1.01385e-69
-3.79045e-70
-4.94262e-69
9.45755e-69
1.28887e-68
-6.98717e-68
2.97739e-68
3.35365e-67
-6.21264e-67
-9.64429e-67
4.61257e-66
-8.35047e-67
-2.35994e-65
3.40149e-65
8.39636e-65
-2.81988e-64
-1.13094e-64
1.62492e-63
-1.2399e-63
-7.20626e-63
1.43371e-62
2.27269e-62
-9.87864e-62
-1.92825e-62
5.35748e-61
-4.14882e-61
-2.40261e-60
4.35457e-60
8.59665e-60
-3.00116e-59
-1.91811e-59
1.70621e-58
-3.67354e-59
-8.49093e-58
8.22628e-58
3.7549e-57
-6.83104e-57
-1.45476e-56
4.42688e-56
4.61535e-56
-2.52461e-55
-8.71602e-56
1.32426e-54
-2.66308e-55
-6.52973e-54
4.50976e-54
3.06511e-53
-3.60076e-53
-1.38103e-52
2.33507e-52
6.00875e-52
-1.36595e-51
-2.53756e-51
7.50715e-51
1.04587e-50
-3.95792e-50
-4.23767e-50
2.02686e-49
1.70677e-49
-1.01643e-48
-6.95125e-49
5.01876e-48
2.93227e-48
-2.44866e-47
-1.31549e-47
1.18285e-46
6.38766e-47
-5.66002e-46
-3.34977e-46
2.6804e-45
1.85866e-45
-1.25321e-44
-1.06237e-44
5.7612e-44
6.11386e-44
-2.58796e-43
-3.48664e-43
1.12542e-42
1.95015e-42
-4.66932e-42
-1.06231e-41
1.80201e-41
5.60428e-41
-6.13518e-41
-2.84709e-40
1.57536e-40
1.38309e-39
-5.11646e-41
-6.36089e-39
-3.14508e-39
2.72565e-38
3.00142e-38
-1.05696e-37
-2.01548e-37
3.47505e-37
1.13956e-36
-7.76646e-37
-5.66139e-36
-6.80823e-37
2.4743e-35
2.22935e-35
-9.19915e-35
-1.74455e-34
2.58866e-34
9.93365e-34
-2.53679e-34
-4.58658e-33
-3.17663e-33
1.69676e-32
3.04286e-32
-4.31752e-32
-1.75875e-31
2.58083e-33
7.60025e-31
8.16737e-31
-2.34766e-30
-6.14915e-30
2.89834e-30
2.95378e-29
2.31345e-29
-9.65746e-29
-2.17509e-28
1.30808e-28
1.07983e-27
8.659e-28
-3.3487e-27
-8.12474e-27
2.71912e-27
3.73664e-26
4.1732e-26
-9.34952e-26
-3.07449e-25
-7.35902e-26
1.14148e-24
2.03903e-24
-1.46872e-24
-1.05321e-23
-1.08246e-23
2.48208e-23
8.3793e-23
3.95526e-23
-2.66827e-22
-6.09176e-22
7.97725e-24
2.41235e-21
4.21303e-21
-1.93543e-21
-1.99151e-20
-2.87808e-20
2.40752e-20
1.56021e-19
2.01627e-19
-2.13816e-19
-1.18286e-18
-1.491e-18
1.55255e-18
8.73037e-18
1.17107e-17
-8.98729e-18
-6.22777e-17
-9.56522e-17
3.10082e-17
4.19652e-16
7.82047e-16
1.44829e-16
-2.54701e-15
-6.12586e-15
-4.33824e-15
1.24503e-14
4.37614e-14
5.50714e-14
-2.97799e-14
-2.65176e-13
-5.15078e-13
-2.79659e-13
1.14529e-12
3.72931e-12
5.03711e-12
-6.47611e-13
-1.90026e-11
-4.4927e-11
-4.7295e-11
3.39368e-11
2.4676e-10
5.17333e-10
5.05528e-10
-4.1635e-10
-2.77429e-09
-5.94442e-09
-6.66279e-09
1.64904e-09
2.61936e-08
6.58411e-08
9.56469e-08
5.21938e-08
-1.60651e-07
-6.1487e-07
-1.22301e-06
-1.53417e-06
-5.57275e-07
3.16221e-06
1.086e-05
2.18984e-05
3.1025e-05
2.51118e-05
-1.88802e-05
-0.000131413
-0.000338565
-0.00063541
-0.000940038
-0.00102712
-0.000445969
0.00156379
0.00613782
0.014807
0.029445
0.0521244
0.084879
0.129392
0.186651
0.256641
0.338127
0.428612
0.524473
0.621314
0.714446
0.799456
0.872745
0.931936
0.9761
1.00575
1.0226
1.02924
1.02862
1.02364
1.01681
1.00999
1.00436
1.00042
0.998186
0.997355
0.997473
0.998087
0.998839
0.999497
0.999953
1.0002
1.00027
1.00024
1.00016
1.00008
1.00002
0.999984
0.999973
0.999975
0.999983
0.999992
0.999999
1
1
1
1
1
1
1
1
1
1
1
1
1
1
1
1
1
1
1
1
1
1
1
1
1
1
1
1
1
1
1
1
1
1
1
1
1
1
1
1
1
1
0.999997
0.999989
0.999978
0.999969
0.999975
1.00002
1.00013
1.00034
1.00064
1.00094
1.00103
1.00045
0.998436
0.993862
0.985193
0.970555
0.947876
0.915121
0.870608
0.813349
0.743359
0.661873
0.571388
0.475527
0.378686
0.285554
0.200544
0.127255
0.0680641
0.0239001
-0.00574592
-0.0226025
-0.0292401
-0.0286177
-0.0236415
-0.0168101
-0.00999283
-0.00435582
-0.000416273
0.00181402
0.00264473
0.00252746
0.00191302
0.0011612
0.000503349
4.65815e-05
-0.000196646
-0.000269916
-0.000237571
-0.000159694
-7.91308e-05
-1.86307e-05
1.55592e-05
2.74321e-05
2.51541e-05
1.67438e-05
7.87629e-06
1.42721e-06
-1.94712e-06
-2.86546e-06
-2.37257e-06
-1.39437e-06
-5.10995e-07
4.31353e-08
2.69108e-07
2.75645e-07
1.84401e-07
8.20877e-08
1.04029e-08
-2.31897e-08
-2.88316e-08
-2.07547e-08
-9.89577e-09
-1.85297e-09
2.07218e-09
2.86323e-09
2.09299e-09
9.89811e-10
1.76575e-10
-2.08141e-10
-2.7503e-10
-1.91936e-10
-8.37825e-11
-9.19981e-12
2.25607e-11
2.5218e-11
1.58392e-11
5.82358e-12
-2.74095e-13
-2.37896e-12
-2.13468e-12
-1.13823e-12
-2.94448e-13
1.32229e-13
2.25475e-13
1.5973e-13
6.66111e-14
4.87523e-15
-1.85752e-14
-1.83045e-14
-9.97863e-15
-2.64418e-15
1.02915e-15
1.78887e-15
1.21945e-15
4.67257e-16
2.44282e-18
-1.50944e-16
-1.30075e-16
-6.19727e-17
-1.06616e-17
1.08592e-17
1.25247e-17
7.03344e-18
1.9058e-18
-6.27243e-19
-1.11231e-18
-7.18737e-19
-2.44018e-19
2.22761e-20
9.26579e-20
6.79678e-20
2.6541e-20
7.53114e-22
-7.35365e-21
-6.05354e-21
-2.59589e-21
-2.527e-22
5.64976e-22
5.14125e-22
2.34525e-22
3.23253e-23
-4.27204e-23
-4.20082e-23
-1.98606e-23
-3.15692e-24
3.2278e-24
3.32193e-24
1.58954e-24
2.62015e-25
-2.46206e-25
-2.55061e-25
-1.2072e-25
-1.89859e-26
1.89991e-26
1.90281e-26
8.70682e-27
1.18938e-27
-1.47384e-27
-1.37703e-27
-5.95066e-28
-6.05848e-29
1.1358e-28
9.63292e-29
3.83305e-29
1.91261e-30
-8.57991e-30
-6.48052e-30
-2.30425e-30
5.97127e-32
6.27605e-31
4.16522e-31
1.27052e-31
-1.79316e-32
-4.40041e-32
-2.53653e-32
-6.21185e-33
2.09023e-33
2.93222e-33
1.44763e-33
2.48063e-34
-1.87584e-34
-1.84244e-34
-7.62001e-35
-5.76633e-36
1.4477e-35
1.08251e-35
3.60072e-36
-2.2863e-37
-9.96997e-37
-5.88358e-37
-1.44297e-37
4.48716e-38
6.21311e-38
2.91051e-38
4.11449e-39
-4.0867e-39
-3.51368e-39
-1.27277e-39
2.09912e-42
2.89321e-40
1.79307e-40
4.60758e-41
-1.16809e-41
-1.74647e-41
-8.12083e-42
-1.10085e-42
1.12013e-42
9.2288e-43
3.1395e-43
-1.17353e-44
-7.53412e-44
-4.26965e-44
-9.29099e-45
3.64218e-45
4.15939e-45
1.68924e-45
1.13435e-46
-2.91562e-46
-1.95408e-46
-5.31038e-47
1.00018e-47
1.69431e-47
7.75833e-48
9.72563e-49
-1.04555e-48
-8.03027e-49
-2.46029e-49
2.38079e-50
6.38863e-50
3.15252e-50
4.92609e-51
-3.59139e-51
-3.02118e-51
-9.78696e-52
5.60345e-53
2.26857e-52
1.15482e-52
1.92664e-53
-1.21479e-53
-1.05238e-53
-3.42236e-54
1.77494e-55
7.65776e-55
3.84748e-55
6.15025e-56
-4.09279e-56
-3.4087e-56
-1.05962e-56
8.07367e-58
2.45893e-57
1.16746e-57
1.58862e-58
-1.36016e-58
-1.02472e-58
-2.88981e-59
3.88914e-60
7.45823e-60
3.20933e-60
3.02897e-61
-4.35457e-61
-2.8384e-61
-6.8011e-62
1.66821e-62
2.1109e-62
7.89173e-63
2.38238e-64
-1.30837e-63
-7.15708e-64
-1.3115e-64
6.15577e-65
5.49123e-65
1.69483e-65
-1.17885e-66
-3.60771e-66
-1.6137e-66
-1.76026e-67
1.95682e-67
1.29031e-67
3.02835e-68
-7.41448e-69
-8.96238e-69
-3.16347e-69
-1.58625e-71
5.38141e-70
2.68025e-70
3.94636e-71
-2.65043e-71
-1.97068e-71
-5.11251e-72
8.53545e-73
1.2799e-72
4.76508e-73
1.51106e-74
-7.26684e-74
-3.75129e-74
-5.89082e-75
3.42003e-75
2.61266e-75
6.80117e-76
-1.07583e-76
-1.63026e-76
-5.9562e-77
-1.45995e-78
9.03602e-78
4.48865e-78
6.39546e-79
-4.27425e-79
-3.03012e-79
-7.2415e-80
1.49898e-80
1.87006e-80
4.30396e-81
)
;

boundaryField
{
    sides
    {
        type            zeroGradient;
    }
    empty
    {
        type            empty;
    }
}


// ************************************************************************* //
