/*--------------------------------*- C++ -*----------------------------------*\
| =========                 |                                                 |
| \\      /  F ield         | OpenFOAM: The Open Source CFD Toolbox           |
|  \\    /   O peration     | Version:  2312                                  |
|   \\  /    A nd           | Website:  www.openfoam.com                      |
|    \\/     M anipulation  |                                                 |
\*---------------------------------------------------------------------------*/
FoamFile
{
    version     2.0;
    format      ascii;
    arch        "LSB;label=32;scalar=64";
    class       volScalarField;
    location    "2";
    object      T;
}
// * * * * * * * * * * * * * * * * * * * * * * * * * * * * * * * * * * * * * //

dimensions      [0 0 0 1 0 0 0];

internalField   nonuniform List<scalar> 
1000
(
0
0
0
0
0
0
0
0
0
0
0
0
0
0
0
0
0
0
0
0
0
0
0
0
0
0
0
0
0
0
0
0
0
0
0
0
0
0
0
0
0
0
0
0
0
0
0
0
0
0
0
0
0
0
0
0
0
0
0
0
0
0
0
0
0
0
0
0
0
0
0
0
0
0
0
0
0
0
0
0
0
0
0
0
0
0
0
0
0
0
0
0
0
0
0
0
0
0
0
0
0
0
0
0
0
0
0
0
0
0
0
0
0
0
0
0
0
0
0
0
0
0
0
0
0
0
0
0
0
0
0
0
0
0
0
0
0
0
0
0
0
0
0
0
0
0
0
0
0
0
0
0
0
0
0
0
0
0
0
0
0
0
0
0
0
0
0
0
0
0
0
0
0
0
0
0
0
0
0
0
0
0
0
0
0
0
0
0
0
0
0
0
0
0
0
0
0
0
0
0
0
0
0
0
0
0
0
0
0
0
0
0
0
0
0
0
0
0
0
0
0
0
0
0
0
0
0
0
0
0
0
0
0
0
0
0
0
0
0
0
0
0
0
0
0
0
0
0
0
0
0
0
0
0
0
0
0
0
0
0
0
0
0
0
0
0
0
0
0
0
0
0
0
0
0
0
0
0
0
0
0
0
0
0
0
0
0
0
0
0
0
0
0
0
0
0
0
0
0
0
0
0
0
0
0
0
0
0
0
0
0
0
0
0
0
0
0
0
0
0
0
0
0
0
0
0
0
0
0
0
0
0
0
0
0
0
0
0
0
0
0
0
0
0
0
0
0
0
0
0
0
0
0
0
0
0
0
0
0
0
0
0
0
0
0
0
0
0
0
0
0
0
0
0
0
0
0
0
0
0
0
0
0
0
0
0
0
0
0
0
0
0
0
0
0
0
0
0
0
0
0
0
0
0
0
0
0
0
0
0
0
0
0
0
0
0
0
0
0
0
0
0
0
0
0
0
0
0
0
0
0
0
0
0
0
0
0
0
0
0
0
0
0
0
0
0
0
0
0
0
7.74603e-58
9.93604e-56
6.37614e-54
2.7293e-52
8.76691e-51
2.2541e-49
4.83235e-48
8.88463e-47
1.43011e-45
2.04733e-44
2.63932e-43
3.0949e-42
3.32854e-41
3.3063e-40
3.05134e-39
2.62977e-38
2.12599e-37
1.61853e-36
1.16439e-35
7.94041e-35
5.14701e-34
3.17925e-33
1.87558e-32
1.05899e-31
5.73333e-31
2.98156e-30
1.49174e-29
7.19122e-29
3.34477e-28
1.50293e-27
6.53188e-27
2.74883e-26
1.1213e-25
4.43793e-25
1.7058e-24
6.37293e-24
2.31616e-23
8.19509e-23
2.82496e-22
9.49389e-22
3.1127e-21
9.96238e-21
3.11445e-20
9.51566e-20
2.84296e-19
8.31006e-19
2.37768e-18
6.66228e-18
1.829e-17
4.92165e-17
1.29867e-16
3.36167e-16
8.53972e-16
2.12974e-15
5.21629e-15
1.25516e-14
2.96811e-14
6.89998e-14
1.57738e-13
3.54712e-13
7.84863e-13
1.70927e-12
3.66475e-12
7.73769e-12
1.60924e-11
3.29748e-11
6.65885e-11
1.32548e-10
2.60137e-10
5.03481e-10
9.61188e-10
1.81038e-09
3.36476e-09
6.17233e-09
1.11773e-08
1.99849e-08
3.52875e-08
6.15423e-08
1.06032e-07
1.80501e-07
3.03655e-07
5.04904e-07
8.29914e-07
1.34872e-06
2.16741e-06
3.44474e-06
5.41543e-06
8.42231e-06
1.29603e-05
1.97353e-05
2.97424e-05
4.43682e-05
6.55222e-05
9.58035e-05
0.00013871
0.000198894
0.000282473
0.000397401
0.000553896
0.000764942
0.00104684
0.00141983
0.00190874
0.00254368
0.00336072
0.00440256
0.00571916
0.00736822
0.00941552
0.0119351
0.0150092
0.0187279
0.0231881
0.0284931
0.0347503
0.04207
0.0505628
0.0603371
0.0714962
0.0841353
0.098338
0.114173
0.131692
0.150926
0.171881
0.19454
0.218858
0.244764
0.272159
0.300916
0.330886
0.361896
0.393754
0.426252
0.459171
0.492285
0.525366
0.558188
0.590533
0.622191
0.652972
0.682701
0.711226
0.738415
0.764165
0.788394
0.811046
0.83209
0.851517
0.869339
0.885587
0.90031
0.913568
0.925434
0.935992
0.945328
0.953536
0.960708
0.966939
0.972321
0.976942
0.980888
0.984237
0.987064
0.989436
0.991417
0.99306
0.994417
0.99553
0.996439
0.997177
0.997773
0.998252
0.998634
0.998938
0.999178
0.999367
0.999515
0.99963
0.999719
0.999788
0.99984
0.99988
0.99991
0.999932
0.999948
0.999959
0.999965
0.999968
0.999966
0.99996
0.999949
0.999929
0.999901
0.999859
0.999799
0.999716
0.999602
0.999445
0.999235
0.998953
0.99858
0.998091
0.997456
0.996639
0.995597
0.994281
0.992632
0.990584
0.988065
0.984991
0.981272
0.976812
0.971507
0.96525
0.95793
0.949437
0.939663
0.928504
0.915865
0.901662
0.885827
0.868308
0.849074
0.828119
0.80546
0.781142
0.755236
0.727841
0.699084
0.669114
0.638104
0.606246
0.573748
0.540829
0.507715
0.474634
0.441812
0.409467
0.377809
0.347028
0.317299
0.288774
0.261585
0.235835
0.211606
0.188954
0.16791
0.148483
0.130661
0.114413
0.0996904
0.0864324
0.0745656
0.0640081
0.0546716
0.0464641
0.0392917
0.0330607
0.0276789
0.0230577
0.0191122
0.0157631
0.0129361
0.0105635
0.00858332
0.00693984
0.00558336
0.00446992
0.00356097
0.00282296
0.00222698
0.00174828
0.00136582
0.00106187
0.000821585
0.00063262
0.000484788
0.00036973
0.000280641
0.000212011
0.00015941
0.000119296
8.88597e-05
6.58803e-05
4.8617e-05
3.57117e-05
2.61115e-05
1.90046e-05
1.3769e-05
9.93043e-06
7.12963e-06
5.09573e-06
3.62573e-06
2.56828e-06
1.81115e-06
1.27158e-06
8.88823e-07
6.18556e-07
4.28591e-07
2.95676e-07
2.03099e-07
1.38907e-07
9.45965e-08
6.41459e-08
4.33126e-08
2.91218e-08
1.9498e-08
1.29999e-08
8.63121e-09
5.70685e-09
3.7577e-09
2.46409e-09
1.60919e-09
1.04661e-09
6.77942e-10
4.37363e-10
2.81022e-10
1.79843e-10
1.14634e-10
7.27788e-11
4.60231e-11
2.89891e-11
1.81881e-11
1.1367e-11
7.07637e-12
4.38829e-12
2.71085e-12
1.6682e-12
1.02266e-12
6.24538e-13
3.79964e-13
2.30297e-13
1.3906e-13
8.36553e-14
5.01381e-14
2.99386e-14
1.78112e-14
1.05574e-14
6.23496e-15
3.66883e-15
2.15103e-15
1.2566e-15
7.31448e-16
4.24244e-16
2.45188e-16
1.41202e-16
8.10302e-17
4.63366e-17
2.64045e-17
1.4994e-17
8.48485e-18
4.78486e-18
2.68903e-18
1.50602e-18
8.40588e-19
4.67579e-19
2.59212e-19
1.43215e-19
7.88606e-20
4.32791e-20
2.36726e-20
1.29054e-20
7.01232e-21
3.79769e-21
2.04999e-21
1.10297e-21
5.91514e-22
3.16195e-22
1.68478e-22
8.94818e-23
4.73734e-23
2.50004e-23
1.31517e-23
6.89666e-24
3.60518e-24
1.87867e-24
9.75923e-25
5.0539e-25
2.60909e-25
1.34279e-25
6.88955e-26
3.52403e-26
1.79705e-26
9.13605e-27
4.63062e-27
2.33995e-27
1.17887e-27
5.92141e-28
2.96541e-28
1.48065e-28
7.37109e-29
3.65871e-29
1.8107e-29
8.93491e-30
4.39608e-30
2.15664e-30
1.05494e-30
5.14548e-31
2.50249e-31
1.2136e-31
5.8686e-32
2.82982e-32
1.36066e-32
6.52402e-33
3.11929e-33
1.48723e-33
7.07111e-34
3.35263e-34
1.58518e-34
7.47431e-35
3.51452e-35
1.64804e-35
7.70694e-36
3.59428e-36
1.67171e-36
7.75415e-37
3.58704e-37
1.65489e-37
7.61447e-38
3.49422e-38
1.59921e-38
7.29978e-39
3.32327e-39
1.50896e-39
6.83362e-40
3.08666e-40
1.39057e-40
6.24843e-41
2.80042e-41
1.25186e-41
5.58178e-42
2.48243e-42
1.10121e-42
4.87259e-43
2.15054e-43
9.46754e-44
4.1575e-44
1.82111e-44
7.9571e-45
3.46808e-45
1.5078e-45
6.53917e-46
2.82897e-46
1.22086e-46
5.25576e-47
2.25707e-47
9.66928e-48
4.13227e-48
1.7617e-48
7.49249e-49
3.17889e-49
1.3455e-49
5.68135e-50
2.39324e-50
1.00575e-50
4.2166e-51
1.76364e-51
7.35932e-52
3.06369e-52
1.27244e-52
5.27252e-53
2.17966e-53
8.98989e-54
3.69928e-54
1.51873e-54
6.22079e-55
2.54225e-55
1.03657e-55
4.21692e-56
1.71161e-56
6.93163e-57
2.80083e-57
1.12918e-57
4.5422e-58
1.82306e-58
7.30077e-59
2.91725e-59
1.1631e-59
4.62705e-60
1.83669e-60
7.27473e-61
2.87507e-61
1.13379e-61
4.46144e-62
1.75177e-62
6.8634e-63
2.68329e-63
1.0468e-63
4.07504e-64
1.58297e-64
6.13606e-65
2.37348e-65
9.16141e-66
3.52877e-66
1.35635e-66
5.20247e-67
1.99131e-67
7.60614e-68
2.89926e-68
1.10283e-68
4.18633e-69
1.58586e-69
5.99517e-70
2.26178e-70
8.51552e-71
3.19954e-71
1.19973e-71
4.48949e-72
1.67662e-72
6.24882e-73
2.32428e-73
8.62801e-74
3.19643e-74
1.18183e-74
4.36095e-75
1.60601e-75
5.9028e-76
2.16527e-76
7.92709e-77
2.89644e-77
1.05625e-77
3.84437e-78
1.39649e-78
5.06304e-79
1.83208e-79
6.61672e-80
2.3851e-80
8.58099e-81
3.08133e-81
1.10437e-81
3.95059e-82
1.41055e-82
5.02681e-83
1.78805e-83
6.34819e-84
2.2496e-84
7.95701e-85
2.80921e-85
9.89946e-86
3.48203e-86
1.22251e-86
4.28418e-87
1.4986e-87
5.23246e-88
1.82361e-88
6.34402e-89
2.20296e-89
7.63591e-90
2.64197e-90
)
;

boundaryField
{
    sides
    {
        type            zeroGradient;
    }
    empty
    {
        type            empty;
    }
}


// ************************************************************************* //
