/*--------------------------------*- C++ -*----------------------------------*\
| =========                 |                                                 |
| \\      /  F ield         | OpenFOAM: The Open Source CFD Toolbox           |
|  \\    /   O peration     | Version:  2312                                  |
|   \\  /    A nd           | Website:  www.openfoam.com                      |
|    \\/     M anipulation  |                                                 |
\*---------------------------------------------------------------------------*/
FoamFile
{
    version     2.0;
    format      ascii;
    arch        "LSB;label=32;scalar=64";
    class       volScalarField;
    location    "3.8";
    object      T;
}
// * * * * * * * * * * * * * * * * * * * * * * * * * * * * * * * * * * * * * //

dimensions      [0 0 0 1 0 0 0];

internalField   nonuniform List<scalar> 
1000
(
0
0
0
0
0
0
0
0
0
0
0
0
0
0
0
0
0
0
0
0
0
0
0
0
0
0
0
0
0
0
0
0
0
0
0
0
0
0
0
0
0
0
0
0
0
0
0
0
0
0
0
0
0
0
0
0
0
0
0
0
0
0
0
0
0
0
0
0
0
0
0
0
0
0
0
0
0
0
0
0
0
0
0
0
0
0
0
0
0
0
0
0
0
0
0
0
0
0
0
0
0
0
0
0
0
0
0
0
0
0
0
0
0
0
0
0
0
0
0
0
0
0
0
0
0
0
0
0
0
0
0
0
0
0
0
0
0
0
0
0
0
0
0
0
0
0
0
0
0
0
0
0
0
0
0
0
0
0
0
0
0
0
0
0
0
0
0
0
0
0
0
0
0
-4.94066e-324
2.96439e-323
-4.94066e-324
2.96439e-323
-4.94066e-324
2.96439e-323
-4.94066e-324
2.96439e-323
-4.94066e-324
2.96439e-323
-4.94066e-324
2.96439e-323
-4.94066e-324
2.96439e-323
-4.94066e-324
2.96439e-323
-4.94066e-324
2.96439e-323
-4.94066e-324
2.96439e-323
-4.94066e-324
2.96439e-323
-4.94066e-324
2.96439e-323
-4.94066e-324
2.96439e-323
-4.94066e-324
2.96439e-323
-4.94066e-324
2.96439e-323
-4.94066e-324
2.96439e-323
-4.94066e-324
2.96439e-323
-4.94066e-324
2.96439e-323
-4.94066e-324
2.96439e-323
-4.94066e-324
2.96439e-323
-4.94066e-324
2.96439e-323
-4.94066e-324
2.96439e-323
-4.94066e-324
2.96439e-323
-4.94066e-324
2.96439e-323
-4.94066e-324
2.96439e-323
-4.94066e-324
2.96439e-323
-4.94066e-324
2.96439e-323
-4.94066e-324
2.96439e-323
-4.94066e-324
2.96439e-323
-4.94066e-324
2.96439e-323
-4.94066e-324
2.96439e-323
-4.94066e-324
2.96439e-323
-4.94066e-324
2.96439e-323
-4.94066e-324
2.96439e-323
-4.94066e-324
2.96439e-323
-4.94066e-324
2.96439e-323
-4.94066e-324
2.96439e-323
-4.94066e-324
2.96439e-323
-4.94066e-324
2.96439e-323
-4.94066e-324
2.96439e-323
-4.94066e-324
2.96439e-323
-4.94066e-324
2.96439e-323
-4.94066e-324
9.88131e-324
2.96439e-323
5.43472e-323
7.41098e-323
9.88131e-323
1.18576e-322
1.43279e-322
1.63042e-322
1.87745e-322
2.12448e-322
2.37152e-322
2.61855e-322
2.86558e-322
3.06321e-322
3.26083e-322
3.45846e-322
3.65609e-322
4.15015e-322
4.00193e-322
3.7549e-322
3.55727e-322
3.35965e-322
3.16202e-322
2.96439e-322
2.76677e-322
2.51973e-322
2.2727e-322
2.02567e-322
1.77864e-322
1.5316e-322
1.33398e-322
1.08694e-322
5.43472e-323
-1.82804e-321
-5.18769e-320
-1.18855e-318
-2.38612e-317
-4.29683e-316
-7.04005e-315
-1.05832e-313
-1.46647e-312
-1.87839e-311
-2.23014e-310
-2.46314e-309
-2.54493e-308
-2.4812e-307
-2.31506e-306
-2.11019e-305
-1.93513e-304
-1.84392e-303
-1.86864e-302
-2.02826e-301
-2.33698e-300
-2.82431e-299
-1.09046e-298
-2.47916e-299
2.05079e-297
3.25626e-296
4.86367e-295
7.95923e-294
1.6733e-292
3.93497e-291
1.60836e-289
6.13163e-288
2.15146e-285
2.64312e-283
1.65837e-281
6.64848e-280
1.90621e-278
4.17748e-277
7.31139e-276
1.05361e-274
1.27845e-273
1.32736e-272
1.19171e-271
9.26534e-271
6.28954e-270
4.10476e-269
3.30719e-268
3.92085e-267
6.10439e-266
8.80646e-265
1.69108e-264
-5.08675e-264
-1.46332e-262
-2.49973e-261
-3.91459e-260
-5.78949e-259
-8.55973e-258
-1.41028e-256
-2.91533e-255
-7.30456e-254
-1.86565e-252
-4.28839e-251
-8.48086e-250
-1.43405e-248
-2.08778e-247
-2.64437e-246
-2.94434e-245
-2.90981e-244
-2.58092e-243
-2.11992e-242
-1.77342e-241
-1.75028e-240
-2.20036e-239
-3.27723e-238
-1.30363e-237
2.75471e-238
4.2658e-236
7.77773e-235
1.28149e-233
2.02083e-232
3.03388e-231
4.72578e-230
8.49579e-229
1.79179e-227
4.15733e-226
9.65283e-225
2.07304e-223
3.9441e-222
6.54735e-221
9.47647e-220
1.20239e-218
1.34773e-217
1.34593e-216
1.20876e-215
9.88225e-215
7.52036e-214
5.61041e-213
4.4852e-212
4.19511e-211
4.69311e-210
1.91206e-209
5.89566e-210
-3.49066e-208
-5.75176e-207
-8.16722e-206
-1.14314e-204
-1.55761e-203
-2.0463e-202
-3.5445e-201
-8.78663e-200
-2.3968e-198
-6.80963e-197
-1.96523e-195
-5.24339e-194
-1.20803e-192
-2.35462e-191
-3.90084e-190
-5.56103e-189
-6.90993e-188
-7.57671e-187
-7.44199e-186
-6.67031e-185
-5.57694e-184
-4.51177e-183
-3.7718e-182
-3.40342e-181
-3.36914e-180
-2.50441e-179
-2.93333e-179
1.28272e-178
2.77712e-177
3.78985e-176
4.39544e-175
5.13648e-174
6.8995e-173
9.80994e-172
1.25429e-170
1.23959e-169
1.10632e-168
1.9326e-167
3.69021e-166
4.86039e-165
4.10823e-164
2.24479e-163
1.56e-162
3.80819e-161
1.1665e-159
1.72151e-159
-6.70726e-159
5.30247e-159
9.40343e-157
6.79211e-156
-8.34037e-156
-1.97971e-154
6.73884e-155
1.33408e-152
2.38824e-152
-2.74058e-151
-2.76904e-150
8.39504e-151
1.16726e-148
1.22008e-148
-3.03416e-147
-2.33863e-146
1.08834e-146
1.11007e-144
1.55568e-144
-1.92682e-143
-3.14455e-142
-2.64398e-142
5.24644e-141
7.22426e-141
-9.39417e-140
-2.52925e-138
-7.9453e-138
7.85489e-138
1.11703e-137
-3.75903e-136
-9.45036e-135
-1.17724e-133
-2.11464e-133
-2.41734e-133
-1.3665e-132
-2.90453e-131
-5.82949e-130
-3.23597e-129
-4.0477e-130
7.47196e-128
1.20716e-127
-7.20091e-127
-1.74161e-125
-5.16907e-125
6.41222e-125
2.59941e-123
8.74615e-123
-7.28828e-123
-3.80157e-121
-2.3381e-120
-1.09326e-120
4.34503e-119
4.71213e-118
4.87126e-118
-4.21417e-117
-3.34278e-116
-1.90559e-116
5.34495e-115
8.9668e-114
5.73594e-113
4.48185e-113
-6.19017e-112
-5.91241e-111
-5.67878e-111
5.01626e-110
8.53054e-109
3.47664e-108
1.00451e-108
-5.65894e-107
-7.20992e-106
-1.61271e-105
1.3002e-105
4.93004e-104
4.1635e-103
4.76667e-103
-2.03998e-102
-3.5947e-101
-2.41002e-100
-2.38843e-100
1.34625e-99
2.11155e-98
1.23369e-97
1.1315e-97
-7.34457e-97
-1.06955e-95
-8.25629e-95
-1.12277e-94
2.21653e-94
4.42751e-93
3.58077e-92
5.30634e-92
-7.49052e-92
-1.66259e-90
-1.60021e-89
-5.24346e-89
-2.75703e-89
4.52249e-88
5.09551e-87
3.65198e-86
5.70184e-86
-4.55927e-86
-1.25897e-84
-1.16527e-83
-5.41749e-83
-5.19329e-83
1.93313e-82
2.57977e-81
2.06783e-80
6.03072e-80
3.46131e-80
-4.07027e-79
-4.16471e-78
-3.1761e-77
-2.24774e-76
-1.5441e-75
-1.04261e-74
-6.94498e-74
-4.5675e-73
-2.96662e-72
-1.90919e-71
-1.00772e-70
-1.5085e-70
3.05707e-71
1.87794e-69
1.48103e-68
9.63354e-68
5.90283e-67
3.52183e-66
2.06691e-65
1.19723e-64
6.85255e-64
3.87735e-63
2.16926e-62
1.20012e-61
6.56608e-61
3.55291e-60
1.90143e-59
1.00651e-58
5.27007e-58
2.72961e-57
1.39858e-56
7.08928e-56
3.55516e-55
1.76393e-54
8.65934e-54
4.20619e-53
2.02168e-52
9.61547e-52
4.52566e-51
2.10796e-50
9.7169e-50
4.43296e-49
2.0016e-48
8.94519e-48
3.95684e-47
1.73247e-46
7.50857e-46
3.22132e-45
1.36808e-44
5.75172e-44
2.39392e-43
9.86406e-43
4.02392e-42
1.62517e-41
6.49859e-41
2.57286e-40
1.00856e-39
3.91459e-39
1.50445e-38
5.72513e-38
2.15733e-37
8.04973e-37
2.97431e-36
1.08827e-35
3.94317e-35
1.41487e-34
5.0275e-34
1.76915e-33
6.16531e-33
2.1278e-32
7.27274e-32
2.46184e-31
8.25318e-31
2.74022e-30
9.01067e-30
2.93453e-29
9.46528e-29
3.02374e-28
9.56695e-28
2.99794e-27
9.30449e-27
2.86013e-26
8.70769e-26
2.62569e-25
7.84167e-25
2.31952e-24
6.79532e-24
1.97171e-23
5.66629e-23
1.61277e-22
4.54636e-22
1.26931e-21
3.50983e-21
9.61192e-21
2.60699e-20
7.00272e-20
1.8629e-19
4.90799e-19
1.28057e-18
3.30886e-18
8.46695e-18
2.14556e-17
5.3841e-17
1.33793e-16
3.29229e-16
8.0222e-16
1.93559e-15
4.62429e-15
1.09391e-14
2.56217e-14
5.94176e-14
1.36424e-13
3.10113e-13
6.97899e-13
1.55486e-12
3.42929e-12
7.48711e-12
1.6181e-11
3.46147e-11
7.32931e-11
1.53601e-10
3.18591e-10
6.53979e-10
1.3285e-09
2.67059e-09
5.31223e-09
1.04556e-08
2.03607e-08
3.92275e-08
7.47675e-08
1.40972e-07
2.62916e-07
4.85001e-07
8.84858e-07
1.59654e-06
2.84857e-06
5.0255e-06
8.76599e-06
1.51166e-05
2.57691e-05
4.34207e-05
7.23105e-05
0.000119006
0.000193534
0.000310967
0.000493619
0.000773993
0.00119866
0.00183323
0.00276846
0.00412762
0.00607493
0.00882466
0.0126504
0.0178933
0.0249683
0.0343659
0.0466479
0.0624354
0.082385
0.107155
0.137356
0.173494
0.215904
0.264675
0.319588
0.380062
0.445124
0.513417
0.583239
0.652635
0.719529
0.781877
0.83785
0.885997
0.925382
0.955656
0.977068
0.990428
0.997174
0.999523
0.999966
0.999999
1
1
1
1
1
1
1
1
1
1
1
1
1
1
1
1
1
1
1
1
1
1
1
1
1
1
1
1
1
1
1
1
1
1
1
1
1
1
1
1
1
1
1
1
1
1
1
1
1
1
0.999999
0.999998
0.999997
0.999995
0.999991
0.999985
0.999974
0.999957
0.999928
0.999881
0.999806
0.999689
0.999506
0.999225
0.9988
0.998165
0.997229
0.995869
0.99392
0.991168
0.98734
0.982094
0.975015
0.965612
0.953324
0.93753
0.917572
0.892793
0.862582
0.826433
0.784013
0.735232
0.68031
0.619829
0.554761
0.486467
0.416646
0.347254
0.280369
0.218031
0.162071
0.113938
0.0745679
0.0443075
0.0229085
0.0095594
0.00282039
0.000475398
3.42155e-05
7.58288e-07
3.80254e-09
3.33441e-12
4.26048e-16
3.61738e-20
3.12711e-24
2.7335e-28
2.39932e-32
2.10457e-36
1.84029e-40
1.60317e-44
1.39196e-48
1.20569e-52
1.04292e-56
9.01701e-61
7.79718e-65
6.74572e-69
5.83957e-73
5.05788e-77
4.38256e-81
3.79827e-85
3.29212e-89
2.85333e-93
2.47281e-97
2.14282e-101
1.85668e-105
1.60865e-109
1.3937e-113
1.20745e-117
1.04609e-121
9.06314e-126
7.85226e-130
6.80327e-134
5.89447e-138
5.10711e-142
4.42492e-146
3.83385e-150
3.32173e-154
2.87801e-158
2.49355e-162
2.16044e-166
1.87182e-170
1.62176e-174
1.40511e-178
1.2174e-182
1.05476e-186
9.13846e-191
7.91758e-195
6.85979e-199
5.94331e-203
5.14926e-207
4.46129e-211
3.86522e-215
3.34878e-219
2.90134e-223
2.51368e-227
2.1778e-231
1.8868e-235
1.63468e-239
1.41625e-243
1.227e-247
1.06303e-251
9.20975e-256
7.979e-260
6.9127e-264
5.98888e-268
5.18851e-272
4.49509e-276
3.89433e-280
3.37385e-284
2.92292e-288
2.53226e-292
2.1938e-296
1.90058e-300
1.64654e-304
1.42645e-308
1.23578e-312
1.07059e-316
9.24397e-321
0
0
0
0
0
0
0
0
0
0
0
0
0
0
0
0
0
0
0
0
0
0
0
0
0
0
0
0
0
0
0
0
0
0
0
0
0
0
0
0
0
0
0
0
0
0
0
0
0
0
0
0
0
0
0
0
0
0
0
0
0
0
0
0
0
0
0
0
0
0
0
0
0
0
0
0
0
0
0
0
0
0
0
0
0
0
0
0
0
0
0
)
;

boundaryField
{
    sides
    {
        type            zeroGradient;
    }
    empty
    {
        type            empty;
    }
}


// ************************************************************************* //
