/*--------------------------------*- C++ -*----------------------------------*\
| =========                 |                                                 |
| \\      /  F ield         | OpenFOAM: The Open Source CFD Toolbox           |
|  \\    /   O peration     | Version:  2312                                  |
|   \\  /    A nd           | Website:  www.openfoam.com                      |
|    \\/     M anipulation  |                                                 |
\*---------------------------------------------------------------------------*/
FoamFile
{
    version     2.0;
    format      ascii;
    arch        "LSB;label=32;scalar=64";
    class       volScalarField;
    location    "1.4";
    object      T;
}
// * * * * * * * * * * * * * * * * * * * * * * * * * * * * * * * * * * * * * //

dimensions      [0 0 0 1 0 0 0];

internalField   nonuniform List<scalar> 
1000
(
0
0
0
0
0
0
0
0
0
0
0
0
0
0
0
0
0
0
0
0
0
0
0
0
0
0
0
0
0
0
0
0
0
0
0
0
0
0
0
0
0
0
0
0
0
0
0
0
0
0
0
0
0
0
0
0
0
0
0
0
0
0
0
0
0
0
0
0
0
0
0
0
0
0
0
0
0
0
0
0
0
0
0
0
0
0
0
0
0
0
0
0
0
0
0
0
0
0
0
0
0
0
0
0
0
0
0
0
0
0
0
0
0
0
0
0
0
0
0
0
0
0
0
0
0
0
0
0
0
0
0
0
0
0
0
0
0
0
0
0
0
0
0
0
0
0
0
0
0
0
0
0
0
0
0
0
0
0
0
0
0
0
0
0
0
0
0
0
0
0
0
0
0
0
0
0
0
0
0
0
0
0
0
0
0
0
0
0
0
0
0
0
0
0
0
0
0
0
0
0
0
0
0
0
0
0
0
0
0
0
0
0
0
0
0
0
0
0
0
0
0
0
0
0
0
0
0
0
0
0
0
0
0
0
0
0
0
0
0
0
0
0
0
0
0
0
0
0
0
0
0
0
0
0
0
0
0
0
0
0
0
0
0
0
0
0
0
0
0
0
0
0
0
0
0
0
0
0
0
0
0
0
0
0
0
0
0
0
0
0
0
0
0
0
0
0
0
0
0
0
0
0
0
0
0
0
0
0
0
0
0
0
0
0
0
0
0
0
0
0
0
0
0
0
0
0
0
0
0
0
0
0
0
0
0
0
0
0
0
0
0
0
0
0
0
0
0
0
0
0
0
0
0
0
0
0
0
0
0
0
0
0
0
0
0
0
0
0
0
0
0
0
0
0
0
0
0
0
0
0
0
0
0
0
0
0
0
0
0
0
0
0
0
0
0
0
0
0
0
0
0
0
0
0
5.22985e-71
-3.51078e-55
2.10956e-47
-1.24563e-43
8.47834e-43
1.84254e-40
5.50709e-39
9.55396e-38
1.18436e-36
1.14449e-35
9.01848e-35
5.92439e-34
3.25739e-33
1.4721e-32
5.11856e-32
1.02914e-31
-2.25717e-31
-3.77008e-30
-2.50024e-29
-1.26088e-28
-5.50081e-28
-2.20568e-27
-8.39681e-27
-3.05907e-26
-1.05258e-25
-3.33455e-25
-9.42908e-25
-2.29163e-24
-4.51531e-24
-6.34664e-24
-3.84419e-24
3.37404e-24
-2.93046e-23
-3.29758e-22
-1.60566e-21
-5.34086e-21
-1.3091e-20
-2.19114e-20
-1.09712e-20
8.30867e-20
3.85129e-19
1.02416e-18
1.83242e-18
1.56543e-18
-3.43847e-18
-2.04336e-17
-5.77903e-17
-1.07757e-16
-1.15486e-16
2.47119e-16
1.35361e-15
1.58636e-15
-3.68869e-15
-8.01324e-15
6.61928e-15
2.33852e-14
-1.08762e-14
-5.84783e-14
1.70714e-14
1.37859e-13
-1.98401e-14
-3.12871e-13
-2.20774e-14
7.07338e-13
2.03744e-13
-1.51628e-12
-8.80538e-13
3.12976e-12
2.92978e-12
-5.85044e-12
-8.55846e-12
8.51043e-12
2.31202e-11
-8.04628e-12
-5.31997e-11
-1.08218e-11
1.08937e-10
8.2792e-11
-1.82281e-10
-2.86787e-10
1.83766e-10
7.28553e-10
1.54138e-10
-1.44185e-09
-1.40544e-09
1.85354e-09
4.46941e-09
-5.86541e-13
-9.28389e-09
-8.13717e-09
1.10475e-08
2.70799e-08
5.39141e-09
-5.16535e-08
-6.10112e-08
3.31983e-08
1.61311e-07
1.17842e-07
-1.86323e-07
-4.54441e-07
-1.8321e-07
6.78619e-07
1.19982e-06
2.49053e-07
-2.05416e-06
-3.16862e-06
-5.17984e-07
5.58252e-06
8.66894e-06
2.26639e-06
-1.34075e-05
-2.4211e-05
-1.24655e-05
2.6183e-05
6.55754e-05
5.67233e-05
-2.58071e-05
-0.000152862
-0.000207701
-8.83819e-05
0.000229027
0.000583622
0.000617511
0.000135355
-0.000891018
-0.00197798
-0.00214222
-0.000852349
0.00216821
0.00604308
0.00848577
0.00718752
0.000626161
-0.0115227
-0.0268451
-0.0396505
-0.0411327
-0.0279489
0.00647778
0.0654861
0.148655
0.251734
0.367494
0.487204
0.602284
0.705717
0.792922
0.861989
0.913364
0.949185
0.972499
0.986557
0.994308
0.998119
0.999682
1
1
1
1
1
1
1
1
1
1
1
1
1
1
1
1
1
1
1
1
1
1
1
1
1
1
1
1
1
1
1
1
1
1
1
1
1
1
1
1
1
1
1
1
1
1
0.999999
0.999999
1
1
1
1
0.999994
0.999991
0.999998
1.00001
1.00002
1.00001
0.999974
0.999934
0.999943
1.00003
1.00015
1.00021
1.00009
0.999772
0.999418
0.999384
0.999866
1.00089
1.00198
1.00213
1.00085
0.997829
0.993958
0.99152
0.992822
0.999387
1.01153
1.02685
1.03964
1.0411
1.02789
0.993431
0.934391
0.851199
0.748108
0.632348
0.512651
0.397592
0.294184
0.207004
0.13796
0.0866032
0.0507956
0.027491
0.0134385
0.00569001
0.00188028
0.000317705
1.54692e-07
9.84279e-09
6.25891e-10
3.9762e-11
2.52318e-12
1.60083e-13
1.05684e-14
5.75313e-16
3.2869e-16
2.22209e-16
1.59045e-16
1.21384e-16
9.51962e-17
7.49113e-17
5.86808e-17
4.57019e-17
3.54047e-17
2.72961e-17
2.09491e-17
1.60058e-17
1.21735e-17
9.21595e-18
6.94426e-18
5.20776e-18
3.88689e-18
2.88715e-18
2.13422e-18
1.56998e-18
1.14925e-18
8.37088e-19
6.06647e-19
4.37397e-19
3.13732e-19
2.23848e-19
1.58866e-19
1.12141e-19
7.87278e-20
5.49676e-20
3.81666e-20
2.6354e-20
1.80963e-20
1.23569e-20
8.39075e-21
5.66592e-21
3.80472e-21
2.54076e-21
1.68734e-21
1.11443e-21
7.32021e-22
4.78222e-22
3.10731e-22
2.00818e-22
1.29092e-22
8.2545e-23
5.25037e-23
3.32209e-23
2.09109e-23
1.30944e-23
8.1576e-24
5.05616e-24
3.11797e-24
1.91306e-24
1.1679e-24
7.0943e-25
4.28801e-25
2.57902e-25
1.54353e-25
9.19288e-26
5.44841e-26
3.21352e-26
1.88623e-26
1.10184e-26
6.40564e-27
3.70626e-27
2.13425e-27
1.22321e-27
6.97769e-28
3.96171e-28
2.23885e-28
1.25934e-28
7.05094e-29
3.92956e-29
2.17993e-29
1.20379e-29
6.61719e-30
3.62094e-30
1.97243e-30
1.0696e-30
5.77413e-31
3.10319e-31
1.66032e-31
8.84397e-32
4.69008e-32
2.47628e-32
1.30171e-32
6.81286e-33
3.55022e-33
1.84204e-33
9.51627e-34
4.89519e-34
2.50734e-34
1.27881e-34
6.49468e-35
3.28453e-35
1.65411e-35
8.29535e-36
4.14281e-36
2.06041e-36
1.02051e-36
5.03377e-37
2.47281e-37
1.20981e-37
5.89498e-38
2.86083e-38
1.38278e-38
6.65697e-39
3.19204e-39
1.52453e-39
7.25254e-40
3.43665e-40
1.62211e-40
7.62663e-41
3.57191e-41
1.66645e-41
7.74485e-42
3.58569e-42
1.65379e-42
7.59869e-43
3.47824e-43
1.58616e-43
7.2063e-44
3.26182e-44
1.47095e-44
6.60899e-45
2.95853e-45
1.31956e-45
5.86414e-46
2.5966e-46
1.14562e-46
5.03634e-47
2.20617e-47
9.62979e-48
4.18849e-48
1.81538e-48
7.84065e-49
3.37458e-49
1.44736e-49
6.1863e-50
2.63504e-50
1.11854e-50
4.7319e-51
1.99499e-51
8.38252e-52
3.5103e-52
1.46506e-52
6.0942e-53
2.52658e-53
1.04402e-53
4.29986e-54
1.76511e-54
7.22223e-55
2.94548e-55
1.19738e-55
4.85186e-56
1.95969e-56
7.89002e-57
3.16654e-57
1.26682e-57
5.05209e-58
2.00845e-58
7.95963e-59
3.14463e-59
1.2385e-59
4.86275e-60
1.9034e-60
7.42753e-61
2.88958e-61
1.12073e-61
4.33367e-62
1.67071e-62
6.42154e-63
2.46082e-63
9.40213e-64
3.58166e-64
1.36038e-64
5.15179e-65
1.94528e-65
7.32387e-66
2.74939e-66
1.02914e-66
3.84114e-67
1.42955e-67
5.30512e-68
1.96315e-68
7.24405e-69
2.66552e-69
9.78045e-70
3.57864e-70
1.30577e-70
4.75121e-71
1.72401e-71
6.23844e-72
2.25122e-72
8.10162e-73
2.90764e-73
1.04071e-73
3.71485e-74
1.32246e-74
4.69524e-75
1.66253e-75
5.87118e-76
2.06789e-76
7.26406e-77
2.545e-77
8.89314e-78
3.09947e-78
1.07743e-78
3.73559e-79
1.29184e-79
4.45593e-80
1.53304e-80
5.26088e-81
1.80076e-81
6.14824e-82
2.09386e-82
7.11293e-83
2.41024e-83
8.14674e-84
2.74679e-84
9.23823e-85
3.0994e-85
1.03728e-85
3.46294e-86
1.15327e-86
3.83141e-87
1.26979e-87
4.19807e-88
1.38459e-88
4.55563e-89
1.49532e-89
4.89648e-90
1.59956e-90
5.21298e-91
1.69491e-91
5.49772e-92
1.7791e-92
5.74385e-93
1.85009e-93
5.94532e-94
1.90613e-94
6.09715e-95
1.94582e-95
6.19563e-96
1.96823e-96
6.23849e-97
1.97287e-97
6.22493e-98
1.95972e-98
6.1557e-99
1.92926e-99
6.03302e-100
1.88241e-100
5.86047e-101
1.82051e-101
5.64283e-102
1.74522e-102
5.38583e-103
1.65848e-103
5.09594e-104
1.56243e-104
4.78011e-105
1.4593e-105
4.44547e-106
1.35134e-106
4.0991e-107
1.24077e-107
3.74777e-108
1.12964e-108
3.39779e-109
1.01986e-109
3.05479e-110
9.13095e-111
2.72364e-111
8.1075e-112
2.4084e-112
7.13965e-113
2.11221e-113
6.23604e-114
1.83738e-114
5.40264e-115
1.58539e-115
4.6429e-116
1.35697e-116
3.95804e-117
1.15219e-117
3.34736e-118
9.70552e-119
2.80851e-119
8.11103e-120
2.33788e-120
6.72537e-121
1.93091e-121
5.53301e-122
1.5824e-122
4.5168e-123
1.28679e-123
3.65886e-124
1.03837e-124
2.94122e-125
8.31521e-126
2.34635e-126
6.60831e-127
1.85766e-127
5.21222e-128
1.4597e-128
4.08028e-129
1.13843e-129
3.17038e-130
8.81275e-131
2.44516e-131
6.77174e-132
1.87195e-132
5.16525e-133
1.42263e-133
3.91113e-134
1.0733e-134
2.94004e-135
8.03894e-136
2.19412e-136
5.97781e-137
1.62572e-137
4.41337e-138
1.19597e-138
3.2352e-139
8.73595e-140
2.35479e-140
6.33618e-141
1.70192e-141
4.56342e-142
1.22147e-142
3.26376e-143
)
;

boundaryField
{
    sides
    {
        type            zeroGradient;
    }
    empty
    {
        type            empty;
    }
}


// ************************************************************************* //
