/*--------------------------------*- C++ -*----------------------------------*\
| =========                 |                                                 |
| \\      /  F ield         | OpenFOAM: The Open Source CFD Toolbox           |
|  \\    /   O peration     | Version:  2312                                  |
|   \\  /    A nd           | Website:  www.openfoam.com                      |
|    \\/     M anipulation  |                                                 |
\*---------------------------------------------------------------------------*/
FoamFile
{
    version     2.0;
    format      ascii;
    arch        "LSB;label=32;scalar=64";
    class       volScalarField;
    location    "0.6";
    object      T;
}
// * * * * * * * * * * * * * * * * * * * * * * * * * * * * * * * * * * * * * //

dimensions      [0 0 0 1 0 0 0];

internalField   nonuniform List<scalar> 
1000
(
0
0
0
0
0
0
0
0
0
0
0
0
0
0
0
0
0
0
0
0
0
0
0
0
0
0
0
0
0
0
0
0
0
0
0
0
0
0
0
0
0
0
0
0
0
0
0
0
0
0
0
0
0
0
0
0
0
0
0
0
0
0
0
0
0
0
0
0
0
0
0
0
0
0
0
0
0
0
0
0
0
0
0
0
0
0
0
0
0
0
0
0
0
0
0
0
0
0
0
0
0
0
0
0
0
0
0
0
0
0
0
0
0
0
0
0
0
0
0
0
0
0
0
0
0
0
0
0
0
0
0
0
0
0
0
0
0
0
0
0
0
0
0
0
0
0
0
0
0
0
0
0
0
0
0
0
0
0
0
0
0
0
0
0
0
0
0
0
0
0
0
0
0
-4.94066e-324
2.96439e-323
-4.94066e-324
2.96439e-323
-4.94066e-324
2.96439e-323
-4.94066e-324
2.96439e-323
-4.94066e-324
2.96439e-323
-4.94066e-324
2.96439e-323
-4.94066e-324
2.96439e-323
-4.94066e-324
2.96439e-323
-4.94066e-324
2.96439e-323
-3.26083e-322
4.36754e-321
-5.59826e-320
7.20412e-319
-9.26792e-318
1.19232e-316
-1.53393e-315
1.97341e-314
-2.5388e-313
3.26617e-312
-4.20194e-311
5.40582e-310
-6.95461e-309
8.94713e-308
-1.15105e-306
1.48083e-305
-1.9051e-304
2.45092e-303
-3.15312e-302
4.0565e-301
-5.2187e-300
6.71388e-299
-8.63744e-298
1.11121e-296
-1.42958e-295
1.83916e-294
-2.36608e-293
3.04398e-292
-3.91609e-291
5.03806e-290
-6.48149e-289
8.33847e-288
-1.07275e-286
1.38009e-285
-1.7755e-284
2.28418e-283
-2.93861e-282
3.78054e-281
-4.86368e-280
6.25714e-279
-8.04984e-278
1.03562e-276
-1.33232e-275
1.71404e-274
-2.20512e-273
2.8369e-272
-3.64968e-271
4.69533e-270
-6.04056e-269
7.77121e-268
-9.99769e-267
1.28621e-265
-1.65471e-264
2.12879e-263
-2.7387e-262
3.52335e-261
-4.53281e-260
5.83147e-259
-7.50222e-258
9.65163e-257
-1.24169e-255
1.59744e-254
-2.05511e-253
2.6439e-252
-3.40139e-251
4.37591e-250
-5.62963e-249
7.24254e-248
-9.31755e-247
1.19871e-245
-1.54214e-244
1.98397e-243
-2.55239e-242
3.28366e-241
-4.22444e-240
5.43476e-239
-6.99185e-238
8.99504e-237
-1.15722e-235
1.48876e-234
-1.9153e-233
2.46404e-232
-3.17e-231
4.07822e-230
-5.24665e-229
6.74983e-228
-8.68369e-227
1.11716e-225
-1.43723e-224
1.849e-223
-2.37875e-222
3.06027e-221
-3.93706e-220
5.06504e-219
-6.5162e-218
8.38311e-217
-1.07849e-215
1.38748e-214
-1.785e-213
2.29641e-212
-2.95435e-211
3.80078e-210
-4.88972e-209
6.29065e-208
-8.09294e-207
1.04116e-205
-1.33946e-204
1.72322e-203
-2.21693e-202
2.85209e-201
-3.66922e-200
4.72047e-199
-6.0729e-198
7.81282e-197
-1.00512e-195
1.29309e-194
-1.66357e-193
2.14019e-192
-2.75336e-191
3.54222e-190
-4.55708e-189
5.8627e-188
-7.54238e-187
9.70331e-186
-1.24834e-184
1.60599e-183
-2.06611e-182
2.65806e-181
-3.41961e-180
4.39934e-179
-5.65977e-178
7.28131e-177
-9.36744e-176
1.20513e-174
-1.5504e-173
1.9946e-172
-2.56606e-171
3.30124e-170
-4.24706e-169
5.46386e-168
-7.02928e-167
9.0432e-166
-1.16341e-164
1.49673e-163
-1.92555e-162
2.47723e-161
-3.18697e-160
4.10005e-159
-5.27474e-158
6.78597e-157
-8.73018e-156
1.12314e-154
-1.44493e-153
1.8589e-152
-2.39149e-151
3.07666e-150
-3.95814e-149
5.09216e-148
-6.55108e-147
8.428e-146
-1.08427e-144
1.39491e-143
-1.79456e-142
2.30871e-141
-2.97017e-140
3.82113e-139
-4.9159e-138
6.32433e-137
-8.13627e-136
1.04674e-134
-1.34663e-133
1.73244e-132
-2.2288e-131
2.86736e-130
-3.68887e-129
4.74574e-128
-6.10542e-127
7.85465e-126
-1.0105e-124
1.30002e-123
-1.67248e-122
2.15165e-121
-2.76811e-120
3.56118e-119
-4.58147e-118
5.89409e-117
-7.58277e-116
9.75526e-115
-1.25502e-113
1.61459e-112
-2.07717e-111
2.67229e-110
-3.43792e-109
4.42289e-108
-5.69007e-107
7.3203e-106
-9.4176e-105
1.21158e-103
-1.5587e-102
2.00527e-101
-2.57979e-100
3.31892e-99
-4.2698e-98
5.49312e-97
-7.06692e-96
9.09162e-95
-1.16964e-93
1.50475e-92
-1.93586e-91
2.4905e-90
-3.20404e-89
4.12201e-88
-5.30298e-87
6.82231e-86
-8.77692e-85
1.12916e-83
-1.45266e-82
1.86886e-81
-2.40429e-80
3.09313e-79
-3.97933e-78
5.11942e-77
-6.58616e-76
8.47312e-75
-1.09007e-73
1.40238e-72
-1.80417e-71
2.32107e-70
-2.98607e-69
3.84159e-68
-4.94222e-67
6.35819e-66
-8.17984e-65
1.05234e-63
-1.35384e-62
1.74172e-61
-2.24073e-60
2.88271e-59
-3.70862e-58
4.77115e-57
-6.13811e-56
7.8967e-55
-1.01591e-53
1.30698e-52
-1.68143e-51
2.16317e-50
-2.78293e-49
3.58025e-48
-4.60601e-47
5.92565e-46
-7.62337e-45
9.8075e-44
-1.26174e-42
1.62323e-41
-2.08829e-40
2.6866e-39
-3.45632e-38
4.44657e-37
-1.65154e-34
1.6617e-33
2.76676e-31
1.89785e-29
8.54841e-28
2.85193e-26
7.51617e-25
1.62962e-23
2.98906e-22
4.73351e-21
6.57285e-20
8.1006e-19
8.94766e-18
8.92894e-17
8.10352e-16
6.72603e-15
5.13004e-14
3.61018e-13
2.3524e-12
1.4236e-11
8.02249e-11
4.21963e-10
2.07565e-09
9.56535e-09
4.1359e-08
1.68004e-07
6.41837e-07
2.30824e-06
7.82004e-06
2.49724e-05
7.51995e-05
0.000213594
0.000572307
0.00144649
0.00344796
0.00774836
0.0164071
0.0327136
0.061366
0.108191
0.17907
0.277903
0.403904
0.549219
0.698365
0.830872
0.927544
0.979743
0.997105
0.999846
0.999998
1
1
1
1
1
1
1
1
1
1
1
1
1
1
1
1
1
1
1
1
1
1
1
1
1
1
1
1
1
1
1
1
1
1
1
1
1
1
1
1
1
1
1
1
1
1
1
1
1
1
1
1
1
1
1
1
1
1
1
1
1
1
1
1
1
1
1
1
1
1
1
1
1
1
1
0.999999
0.999998
0.999992
0.999975
0.999925
0.999786
0.999426
0.998549
0.996543
0.992234
0.98356
0.96723
0.938544
0.891676
0.82075
0.721877
0.595851
0.45054
0.301429
0.168981
0.072375
0.0202269
0.00288955
0.000154019
2.19753e-06
6.23711e-09
2.76996e-12
2.42797e-16
2.09738e-20
1.79033e-24
1.51468e-28
1.27403e-32
1.06844e-36
8.95453e-41
7.51203e-45
6.31329e-49
5.31634e-53
4.4844e-57
3.78708e-61
3.20013e-65
2.70452e-69
2.28523e-73
1.93025e-77
1.62976e-81
1.37555e-85
1.16068e-89
9.79196e-94
8.26015e-98
6.96771e-102
5.87747e-106
4.95783e-110
4.18207e-114
3.52763e-118
2.97548e-122
2.50963e-126
2.11658e-130
1.78496e-134
1.50519e-138
1.26919e-142
1.07011e-146
9.022e-151
7.6059e-155
6.41169e-159
5.40466e-163
4.55553e-167
3.83959e-171
3.23597e-175
2.72709e-179
2.29809e-183
1.93646e-187
1.63164e-191
1.37471e-195
1.15817e-199
9.75678e-204
8.21888e-208
6.92294e-212
5.83097e-216
4.91092e-220
4.13578e-224
3.48276e-228
2.93266e-232
2.46928e-236
2.07899e-240
1.75027e-244
1.47343e-248
1.2403e-252
1.04398e-256
8.78683e-261
7.39508e-265
6.22336e-269
5.23694e-273
4.40658e-277
3.70763e-281
3.11934e-285
2.62421e-289
2.20753e-293
1.85688e-297
1.56182e-301
1.31355e-305
1.10468e-309
9.28948e-314
7.8112e-318
6.47226e-322
0
0
0
0
0
0
0
0
0
0
0
0
0
0
0
0
0
0
0
0
0
0
0
0
0
0
0
0
0
0
0
0
0
0
0
0
0
0
0
0
0
0
0
0
0
0
0
0
0
0
0
0
0
0
0
0
0
0
0
0
0
0
0
0
0
0
0
0
0
0
0
0
0
0
0
0
0
0
0
0
0
0
0
0
0
0
0
0
0
0
0
0
0
0
0
0
0
0
0
0
0
0
0
0
0
0
0
0
0
0
0
0
0
0
0
0
0
0
0
0
0
0
0
0
0
0
0
0
0
0
0
0
0
0
0
0
0
0
0
0
0
0
0
0
0
0
0
0
0
0
0
0
0
0
0
0
0
0
0
0
0
0
0
0
0
0
0
0
0
0
0
0
0
0
0
0
0
0
0
0
0
0
0
0
0
0
0
0
0
0
0
0
0
0
0
0
0
0
0
0
0
0
0
0
0
0
0
0
0
0
0
0
0
0
0
0
0
0
0
0
0
0
0
0
0
0
0
0
0
0
0
0
0
0
0
0
0
0
0
0
0
0
0
0
0
0
0
0
0
0
0
0
0
0
0
0
0
0
0
0
0
0
0
0
0
0
0
0
0
0
0
0
0
0
0
0
0
0
0
0
0
0
0
0
0
0
0
0
0
0
0
0
0
0
0
0
0
0
0
0
0
0
0
0
0
0
0
0
0
0
0
0
0
0
0
0
0
0
0
0
0
0
)
;

boundaryField
{
    sides
    {
        type            zeroGradient;
    }
    empty
    {
        type            empty;
    }
}


// ************************************************************************* //
