/*--------------------------------*- C++ -*----------------------------------*\
| =========                 |                                                 |
| \\      /  F ield         | OpenFOAM: The Open Source CFD Toolbox           |
|  \\    /   O peration     | Version:  2312                                  |
|   \\  /    A nd           | Website:  www.openfoam.com                      |
|    \\/     M anipulation  |                                                 |
\*---------------------------------------------------------------------------*/
FoamFile
{
    version     2.0;
    format      ascii;
    arch        "LSB;label=32;scalar=64";
    class       volScalarField;
    location    "2.9";
    object      T;
}
// * * * * * * * * * * * * * * * * * * * * * * * * * * * * * * * * * * * * * //

dimensions      [0 0 0 1 0 0 0];

internalField   nonuniform List<scalar> 
1000
(
3.77295e-09
3.78609e-09
3.8223e-09
3.88178e-09
3.96484e-09
4.07194e-09
4.20365e-09
4.3607e-09
4.54392e-09
4.7543e-09
4.99299e-09
5.26125e-09
5.56053e-09
5.89242e-09
6.2587e-09
6.66132e-09
7.10239e-09
7.58427e-09
8.10949e-09
8.68079e-09
9.30118e-09
9.97389e-09
1.07024e-08
1.14905e-08
1.23422e-08
1.3262e-08
1.42545e-08
1.53247e-08
1.64781e-08
1.77205e-08
1.90582e-08
2.04978e-08
2.20466e-08
2.37121e-08
2.55026e-08
2.74269e-08
2.94945e-08
3.17153e-08
3.41001e-08
3.66604e-08
3.94085e-08
4.23575e-08
4.55214e-08
4.89151e-08
5.25547e-08
5.64571e-08
6.06405e-08
6.51242e-08
6.99291e-08
7.5077e-08
8.05914e-08
8.64975e-08
9.28218e-08
9.95928e-08
1.06841e-07
1.14598e-07
1.22899e-07
1.31779e-07
1.41279e-07
1.51438e-07
1.62303e-07
1.73918e-07
1.86334e-07
1.99604e-07
2.13784e-07
2.28934e-07
2.45117e-07
2.62402e-07
2.80859e-07
3.00566e-07
3.21602e-07
3.44055e-07
3.68014e-07
3.93577e-07
4.20847e-07
4.49933e-07
4.8095e-07
5.1402e-07
5.49275e-07
5.86851e-07
6.26895e-07
6.69561e-07
7.15013e-07
7.63426e-07
8.14982e-07
8.69878e-07
9.28319e-07
9.90523e-07
1.05672e-06
1.12716e-06
1.2021e-06
1.28181e-06
1.36657e-06
1.45671e-06
1.55254e-06
1.65439e-06
1.76264e-06
1.87767e-06
1.99988e-06
2.12968e-06
2.26755e-06
2.41394e-06
2.56936e-06
2.73434e-06
2.90943e-06
3.09523e-06
3.29236e-06
3.50146e-06
3.72324e-06
3.95841e-06
4.20775e-06
4.47206e-06
4.75219e-06
5.04905e-06
5.36357e-06
5.69675e-06
6.04963e-06
6.42332e-06
6.81898e-06
7.23783e-06
7.68114e-06
8.15027e-06
8.64664e-06
9.17174e-06
9.72713e-06
1.03145e-05
1.09355e-05
1.1592e-05
1.22859e-05
1.30192e-05
1.37941e-05
1.46126e-05
1.54772e-05
1.63903e-05
1.73544e-05
1.83722e-05
1.94465e-05
2.05803e-05
2.17766e-05
2.30388e-05
2.437e-05
2.5774e-05
2.72545e-05
2.88152e-05
3.04604e-05
3.21942e-05
3.40212e-05
3.5946e-05
3.79734e-05
4.01087e-05
4.23572e-05
4.47244e-05
4.72162e-05
4.98387e-05
5.25983e-05
5.55016e-05
5.85557e-05
6.17677e-05
6.51453e-05
6.86965e-05
7.24294e-05
7.63527e-05
8.04754e-05
8.48069e-05
8.9357e-05
9.41359e-05
9.91543e-05
0.000104423
0.000109954
0.000115759
0.000121851
0.000128243
0.000134947
0.00014198
0.000149354
0.000157086
0.000165192
0.000173687
0.00018259
0.000191917
0.000201689
0.000211924
0.000222642
0.000233864
0.000245612
0.000257908
0.000270776
0.000284239
0.000298324
0.000313056
0.000328463
0.000344571
0.000361412
0.000379013
0.000397408
0.000416628
0.000436707
0.00045768
0.000479582
0.000502451
0.000526325
0.000551245
0.000577251
0.000604386
0.000632695
0.000662222
0.000693016
0.000725125
0.000758598
0.000793489
0.000829851
0.000867739
0.00090721
0.000948324
0.000991142
0.00103573
0.00108214
0.00113045
0.00118073
0.00123305
0.00128748
0.00134409
0.00140297
0.00146419
0.00152784
0.00159399
0.00166275
0.00173419
0.00180841
0.0018855
0.00196557
0.00204871
0.00213501
0.0022246
0.00231758
0.00241405
0.00251414
0.00261796
0.00272562
0.00283726
0.002953
0.00307297
0.0031973
0.00332613
0.0034596
0.00359784
0.00374102
0.00388926
0.00404274
0.0042016
0.004366
0.00453612
0.00471211
0.00489414
0.0050824
0.00527706
0.0054783
0.0056863
0.00590126
0.00612338
0.00635284
0.00658985
0.00683461
0.00708734
0.00734824
0.00761754
0.00789545
0.00818219
0.00847801
0.00878312
0.00909777
0.00942219
0.00975664
0.0101014
0.0104566
0.0108226
0.0111996
0.011588
0.0119879
0.0123996
0.0128235
0.0132597
0.0137087
0.0141705
0.0146457
0.0151343
0.0156368
0.0161534
0.0166845
0.0172303
0.0177911
0.0183673
0.0189592
0.019567
0.0201912
0.020832
0.0214897
0.0221648
0.0228574
0.0235679
0.0242968
0.0250442
0.0258105
0.0265962
0.0274014
0.0282266
0.0290721
0.0299382
0.0308252
0.0317336
0.0326636
0.0336156
0.03459
0.035587
0.036607
0.0376503
0.0387174
0.0398084
0.0409238
0.0420639
0.043229
0.0444194
0.0456354
0.0468775
0.0481458
0.0494408
0.0507626
0.0521117
0.0534883
0.0548928
0.0563253
0.0577862
0.0592758
0.0607944
0.0623421
0.0639194
0.0655263
0.0671632
0.0688304
0.070528
0.0722562
0.0740153
0.0758055
0.0776269
0.0794799
0.0813644
0.0832808
0.085229
0.0872094
0.089222
0.091267
0.0933444
0.0954543
0.0975969
0.0997722
0.10198
0.104221
0.106495
0.108801
0.11114
0.113513
0.115918
0.118355
0.120826
0.123328
0.125864
0.128432
0.131032
0.133664
0.136328
0.139024
0.141752
0.144511
0.147301
0.150121
0.152973
0.155855
0.158766
0.161708
0.164678
0.167678
0.170706
0.173763
0.176847
0.179958
0.183096
0.186261
0.189451
0.192666
0.195906
0.199171
0.202459
0.20577
0.209103
0.212458
0.215833
0.21923
0.222645
0.22608
0.229533
0.233003
0.236489
0.239992
0.243509
0.24704
0.250585
0.254142
0.25771
0.261289
0.264878
0.268475
0.27208
0.275691
0.279309
0.28293
0.286556
0.290184
0.293814
0.297444
0.301074
0.304701
0.308326
0.311948
0.315564
0.319173
0.322776
0.32637
0.329954
0.333528
0.337089
0.340637
0.344171
0.347689
0.35119
0.354673
0.358137
0.36158
0.365001
0.3684
0.371774
0.375123
0.378445
0.381739
0.385005
0.388239
0.391443
0.394613
0.39775
0.400852
0.403917
0.406944
0.409933
0.412882
0.41579
0.418655
0.421478
0.424255
0.426988
0.429673
0.432311
0.4349
0.437439
0.439926
0.442362
0.444745
0.447074
0.449348
0.451566
0.453727
0.455831
0.457876
0.459861
0.461786
0.463649
0.465451
0.46719
0.468866
0.470477
0.472023
0.473504
0.474918
0.476266
0.477546
0.478758
0.479902
0.480977
0.481982
0.482917
0.483782
0.484576
0.485299
0.485951
0.486531
0.487039
0.487475
0.487839
0.48813
0.488348
0.488494
0.488567
0.488567
0.488494
0.488348
0.48813
0.487839
0.487475
0.487039
0.486531
0.485951
0.485299
0.484576
0.483782
0.482917
0.481982
0.480977
0.479902
0.478758
0.477546
0.476266
0.474918
0.473504
0.472023
0.470477
0.468866
0.46719
0.465451
0.463649
0.461786
0.459861
0.457876
0.455831
0.453727
0.451566
0.449348
0.447074
0.444745
0.442362
0.439926
0.437439
0.4349
0.432311
0.429673
0.426988
0.424255
0.421478
0.418655
0.41579
0.412882
0.409933
0.406944
0.403917
0.400852
0.39775
0.394613
0.391443
0.388239
0.385005
0.381739
0.378445
0.375123
0.371774
0.3684
0.365001
0.36158
0.358137
0.354673
0.35119
0.347689
0.344171
0.340637
0.337089
0.333528
0.329954
0.32637
0.322776
0.319173
0.315564
0.311948
0.308326
0.304701
0.301074
0.297444
0.293814
0.290184
0.286556
0.28293
0.279309
0.275691
0.27208
0.268475
0.264878
0.261289
0.25771
0.254142
0.250585
0.24704
0.243509
0.239992
0.236489
0.233003
0.229533
0.22608
0.222645
0.21923
0.215833
0.212458
0.209103
0.20577
0.202459
0.199171
0.195906
0.192666
0.189451
0.186261
0.183096
0.179958
0.176847
0.173763
0.170706
0.167678
0.164678
0.161708
0.158766
0.155855
0.152973
0.150121
0.147301
0.144511
0.141752
0.139024
0.136328
0.133664
0.131032
0.128432
0.125864
0.123328
0.120826
0.118355
0.115918
0.113513
0.11114
0.108801
0.106495
0.104221
0.10198
0.0997722
0.0975969
0.0954543
0.0933444
0.091267
0.089222
0.0872094
0.085229
0.0832808
0.0813644
0.0794799
0.0776269
0.0758055
0.0740153
0.0722562
0.070528
0.0688304
0.0671632
0.0655263
0.0639194
0.0623421
0.0607944
0.0592758
0.0577862
0.0563253
0.0548928
0.0534883
0.0521117
0.0507626
0.0494408
0.0481458
0.0468775
0.0456354
0.0444194
0.043229
0.0420639
0.0409238
0.0398084
0.0387174
0.0376503
0.036607
0.035587
0.03459
0.0336156
0.0326636
0.0317336
0.0308252
0.0299382
0.0290721
0.0282266
0.0274014
0.0265962
0.0258105
0.0250442
0.0242968
0.0235679
0.0228574
0.0221648
0.0214897
0.020832
0.0201912
0.019567
0.0189592
0.0183673
0.0177911
0.0172303
0.0166845
0.0161534
0.0156368
0.0151343
0.0146457
0.0141705
0.0137087
0.0132597
0.0128235
0.0123996
0.0119879
0.011588
0.0111996
0.0108226
0.0104566
0.0101014
0.00975664
0.00942219
0.00909777
0.00878312
0.00847801
0.00818219
0.00789545
0.00761754
0.00734824
0.00708734
0.00683461
0.00658985
0.00635284
0.00612338
0.00590126
0.0056863
0.0054783
0.00527706
0.0050824
0.00489414
0.00471211
0.00453612
0.004366
0.0042016
0.00404274
0.00388926
0.00374102
0.00359784
0.0034596
0.00332613
0.0031973
0.00307297
0.002953
0.00283726
0.00272562
0.00261796
0.00251414
0.00241405
0.00231758
0.0022246
0.00213501
0.00204871
0.00196557
0.0018855
0.00180841
0.00173419
0.00166275
0.00159399
0.00152784
0.00146419
0.00140297
0.00134409
0.00128748
0.00123305
0.00118073
0.00113045
0.00108214
0.00103573
0.000991142
0.000948324
0.00090721
0.000867739
0.000829851
0.000793489
0.000758598
0.000725125
0.000693016
0.000662222
0.000632695
0.000604386
0.000577251
0.000551245
0.000526325
0.000502451
0.000479582
0.00045768
0.000436707
0.000416628
0.000397408
0.000379013
0.000361412
0.000344571
0.000328463
0.000313056
0.000298324
0.000284239
0.000270776
0.000257908
0.000245612
0.000233864
0.000222642
0.000211924
0.000201689
0.000191917
0.00018259
0.000173687
0.000165192
0.000157086
0.000149354
0.00014198
0.000134947
0.000128243
0.000121851
0.000115759
0.000109954
0.000104423
9.91543e-05
9.41359e-05
8.9357e-05
8.48069e-05
8.04754e-05
7.63527e-05
7.24294e-05
6.86965e-05
6.51453e-05
6.17677e-05
5.85557e-05
5.55016e-05
5.25983e-05
4.98387e-05
4.72162e-05
4.47244e-05
4.23572e-05
4.01087e-05
3.79734e-05
3.5946e-05
3.40212e-05
3.21942e-05
3.04604e-05
2.88152e-05
2.72545e-05
2.5774e-05
2.437e-05
2.30388e-05
2.17766e-05
2.05803e-05
1.94465e-05
1.83722e-05
1.73544e-05
1.63903e-05
1.54772e-05
1.46126e-05
1.37941e-05
1.30192e-05
1.22859e-05
1.1592e-05
1.09355e-05
1.03145e-05
9.72713e-06
9.17174e-06
8.64664e-06
8.15027e-06
7.68114e-06
7.23783e-06
6.81898e-06
6.42332e-06
6.04963e-06
5.69675e-06
5.36357e-06
5.04905e-06
4.75219e-06
4.47206e-06
4.20775e-06
3.95841e-06
3.72324e-06
3.50146e-06
3.29236e-06
3.09523e-06
2.90943e-06
2.73434e-06
2.56936e-06
2.41394e-06
2.26755e-06
2.12968e-06
1.99988e-06
1.87767e-06
1.76264e-06
1.65439e-06
1.55254e-06
1.45671e-06
1.36657e-06
1.28181e-06
1.2021e-06
1.12716e-06
1.05672e-06
9.90523e-07
9.28319e-07
8.69878e-07
8.14982e-07
7.63426e-07
7.15013e-07
6.69561e-07
6.26895e-07
5.86851e-07
5.49275e-07
5.1402e-07
4.8095e-07
4.49933e-07
4.20847e-07
3.93577e-07
3.68014e-07
3.44055e-07
3.21602e-07
3.00566e-07
2.80859e-07
2.62402e-07
2.45117e-07
2.28934e-07
2.13784e-07
1.99604e-07
1.86334e-07
1.73918e-07
1.62303e-07
1.51438e-07
1.41279e-07
1.31779e-07
1.22899e-07
1.14598e-07
1.06841e-07
9.95928e-08
9.28218e-08
8.64975e-08
8.05914e-08
7.5077e-08
6.99291e-08
6.51242e-08
6.06405e-08
5.64571e-08
5.25547e-08
4.89151e-08
4.55214e-08
4.23575e-08
3.94085e-08
3.66604e-08
3.41001e-08
3.17153e-08
2.94945e-08
2.74269e-08
2.55026e-08
2.37121e-08
2.20466e-08
2.04978e-08
1.90582e-08
1.77205e-08
1.64781e-08
1.53247e-08
1.42545e-08
1.3262e-08
1.23422e-08
1.14905e-08
1.07024e-08
9.97389e-09
9.30118e-09
8.68079e-09
8.10949e-09
7.58427e-09
7.10239e-09
6.66132e-09
6.2587e-09
5.89242e-09
5.56053e-09
5.26125e-09
4.99299e-09
4.7543e-09
4.54392e-09
4.3607e-09
4.20365e-09
4.07194e-09
3.96484e-09
3.88178e-09
3.8223e-09
3.78609e-09
3.77295e-09
)
;

boundaryField
{
    sides
    {
        type            zeroGradient;
    }
    empty
    {
        type            empty;
    }
}


// ************************************************************************* //
