/*--------------------------------*- C++ -*----------------------------------*\
| =========                 |                                                 |
| \\      /  F ield         | OpenFOAM: The Open Source CFD Toolbox           |
|  \\    /   O peration     | Version:  2312                                  |
|   \\  /    A nd           | Website:  www.openfoam.com                      |
|    \\/     M anipulation  |                                                 |
\*---------------------------------------------------------------------------*/
FoamFile
{
    version     2.0;
    format      ascii;
    arch        "LSB;label=32;scalar=64";
    class       volScalarField;
    location    "3";
    object      T;
}
// * * * * * * * * * * * * * * * * * * * * * * * * * * * * * * * * * * * * * //

dimensions      [0 0 0 1 0 0 0];

internalField   nonuniform List<scalar> 
1000
(
0
0
0
0
0
0
0
0
0
0
0
0
0
0
0
0
0
0
0
0
0
0
0
0
0
0
0
0
0
0
0
0
0
0
0
0
0
0
0
0
0
0
0
0
0
0
0
0
0
0
0
0
0
0
0
0
0
0
0
0
0
0
0
0
0
0
0
0
0
0
0
0
0
0
0
0
0
0
0
0
0
0
0
0
0
0
0
0
0
0
0
0
0
0
0
0
0
0
0
0
0
0
0
0
0
0
0
0
0
0
0
0
0
0
0
0
0
0
0
0
0
0
0
0
0
0
0
0
0
0
0
0
0
0
0
0
0
0
0
0
0
0
0
0
0
0
0
0
0
0
0
0
0
0
0
0
0
0
0
0
0
0
0
0
0
0
0
0
0
0
0
0
0
-4.94066e-324
2.96439e-323
-4.94066e-324
2.96439e-323
-4.94066e-324
2.96439e-323
-4.94066e-324
2.96439e-323
-4.94066e-324
2.96439e-323
-4.94066e-324
2.96439e-323
-4.94066e-324
2.96439e-323
-4.94066e-324
2.96439e-323
-4.94066e-324
2.96439e-323
-4.94066e-324
2.96439e-323
-4.94066e-324
2.96439e-323
-4.94066e-324
2.96439e-323
-4.94066e-324
2.96439e-323
-4.94066e-324
2.96439e-323
-4.94066e-324
2.96439e-323
-4.94066e-324
2.96439e-323
-4.94066e-324
2.96439e-323
-4.94066e-324
2.96439e-323
-4.94066e-324
2.96439e-323
-4.94066e-324
2.96439e-323
-4.94066e-324
2.96439e-323
-4.94066e-324
2.96439e-323
-4.94066e-324
2.96439e-323
-4.94066e-324
2.96439e-323
-4.94066e-324
2.96439e-323
-4.94066e-324
2.96439e-323
-4.94066e-324
2.96439e-323
-4.94066e-324
2.96439e-323
-4.94066e-324
2.96439e-323
-4.94066e-324
2.96439e-323
-4.94066e-324
2.96439e-323
-4.94066e-324
2.96439e-323
-4.94066e-324
2.96439e-323
-4.94066e-324
2.96439e-323
-4.94066e-324
2.96439e-323
-4.94066e-324
2.96439e-323
-4.94066e-324
2.96439e-323
-4.94066e-324
2.96439e-323
-4.94066e-324
2.96439e-323
-4.94066e-324
2.96439e-323
-4.94066e-324
2.96439e-323
-4.94066e-324
2.96439e-323
-4.94066e-324
2.97428e-321
-3.12249e-321
4.29447e-319
-1.54945e-318
5.5242e-317
-4.81981e-316
6.14148e-315
-1.17357e-313
5.70542e-313
-2.44681e-311
3.98112e-311
-4.61577e-309
1.00189e-309
-8.15969e-307
-2.85556e-307
-1.38674e-304
-7.45074e-305
-2.31559e-302
-1.40198e-302
-3.84762e-300
-2.41529e-300
-6.35727e-298
-3.34012e-298
-1.03302e-295
-9.71192e-297
-1.61291e-293
1.72365e-293
-2.3317e-291
8.44428e-291
-3.0023e-289
2.61855e-288
-3.34249e-287
6.37339e-286
-3.10909e-285
1.32932e-283
-2.17032e-283
2.50892e-281
-5.39311e-282
4.43752e-279
1.59553e-279
7.54677e-277
4.19965e-277
1.26118e-274
7.97945e-275
2.09649e-272
1.37986e-272
3.46658e-270
2.05014e-270
5.67668e-268
2.11634e-268
9.14835e-266
-1.07308e-266
1.43312e-263
-1.53146e-263
2.16086e-261
-5.58721e-261
3.16729e-259
-1.43513e-258
4.64307e-257
-3.05113e-256
6.92567e-255
-5.93618e-254
1.03567e-252
-1.12827e-251
1.5196e-250
-2.11835e-249
2.21328e-248
-3.83363e-247
3.35637e-246
-6.5684e-245
5.48073e-244
-1.07476e-242
9.40636e-242
-1.72737e-240
1.61929e-239
-2.79326e-238
2.74457e-237
-4.55789e-236
4.61594e-235
-7.45537e-234
7.73883e-233
-1.22528e-231
1.28455e-230
-2.03137e-229
2.12088e-228
-3.34794e-227
3.58832e-226
-5.32851e-225
6.37517e-224
-8.07401e-223
1.16531e-221
-1.19357e-220
2.09e-219
-1.82146e-218
3.57122e-217
-2.98062e-216
5.83989e-215
-5.1158e-214
9.38996e-213
-8.79583e-212
1.52036e-210
-1.4881e-209
2.48386e-208
-2.50091e-207
4.06204e-206
-4.19904e-205
6.66309e-204
-6.99103e-203
1.10176e-201
-1.15761e-200
1.81285e-199
-1.95967e-198
2.88675e-197
-3.47467e-196
4.38086e-195
-6.34647e-194
6.45679e-193
-1.14504e-191
9.68072e-191
-1.98897e-189
1.52884e-188
-3.33334e-187
2.52807e-186
-5.47851e-185
4.26044e-184
-8.95897e-183
7.18657e-182
-1.46705e-180
1.20694e-179
-2.40977e-178
2.01495e-177
-3.97472e-176
3.3429e-175
-6.57308e-174
5.55398e-173
-1.07919e-171
9.45055e-171
-1.72518e-169
1.68627e-168
-2.64121e-167
3.12566e-166
-3.90002e-165
5.77494e-164
-5.75758e-163
1.02902e-161
-8.83963e-161
1.75991e-159
-1.04825e-158
-2.74558e-158
1.07701e-156
-4.59464e-156
-2.58727e-155
6.86531e-154
-5.96064e-156
-2.51234e-152
2.28166e-151
1.09788e-150
-1.93359e-149
-1.61096e-149
1.05357e-147
-6.21723e-148
-4.57261e-146
1.52792e-145
2.24123e-144
-1.31505e-143
-9.76117e-143
9.01473e-142
4.6587e-141
-4.95052e-140
-2.21915e-139
2.47582e-138
1.09277e-137
-1.13532e-136
-6.13615e-136
4.36044e-135
3.33223e-134
-1.44458e-133
-1.8696e-132
3.51557e-132
9.98005e-131
-2.6234e-131
-5.99197e-129
-5.63009e-129
2.27949e-127
4.62197e-127
-6.36209e-126
-4.52531e-125
8.76459e-125
2.18718e-123
4.63042e-124
-1.22394e-121
-3.17129e-121
2.06769e-120
1.88584e-119
-1.47018e-119
-1.28055e-117
-2.26939e-117
2.1487e-116
2.0418e-115
-3.36821e-116
-9.79578e-114
-2.24947e-113
1.17187e-112
2.05244e-111
1.63856e-111
-4.85094e-110
-3.50137e-109
1.91011e-110
1.39047e-107
5.54798e-107
-6.46975e-107
-2.8244e-105
-4.68384e-105
2.74644e-104
6.51008e-103
1.30756e-102
-4.52229e-102
-1.083e-100
-1.831e-100
8.01462e-100
1.81732e-98
3.65712e-98
-1.0186e-97
-2.74519e-96
-8.98831e-96
6.1149e-96
3.38013e-94
1.86464e-93
7.0673e-94
-3.44773e-92
-3.92361e-91
-4.79994e-91
2.50596e-90
4.8493e-89
1.60092e-88
-2.93425e-89
-3.86083e-87
-4.14843e-86
-5.94394e-86
1.71964e-85
3.64639e-84
1.86782e-83
1.20445e-83
-1.97771e-82
-2.69407e-81
-9.25952e-81
-2.39037e-81
1.33588e-79
1.61336e-78
5.27544e-78
1.5691e-78
-6.79649e-77
-7.9843e-76
-3.08877e-75
-1.82894e-75
2.72882e-74
3.30498e-73
1.6326e-72
1.44836e-72
-8.49756e-72
-1.1214e-70
-1.00777e-69
-8.33157e-69
-6.65759e-68
-5.20935e-67
-4.00606e-66
-3.0275e-65
-2.16363e-64
-5.62637e-64
-2.66275e-64
4.28495e-63
4.23462e-62
3.19613e-61
2.2441e-60
1.5272e-59
1.01864e-58
6.68135e-58
4.31415e-57
2.74345e-56
1.71853e-55
1.06058e-54
6.44913e-54
3.86439e-53
2.28207e-52
1.32828e-51
7.62081e-51
4.31031e-50
2.40353e-49
1.3215e-48
7.1646e-48
3.83059e-47
2.01986e-46
1.0505e-45
5.38916e-45
2.72728e-44
1.36161e-43
6.70689e-43
3.2596e-42
1.56319e-41
7.39755e-41
3.45481e-40
1.59237e-39
7.2439e-39
3.25263e-38
1.44163e-37
6.30745e-37
2.7243e-36
1.16166e-35
4.8904e-35
2.0327e-34
8.34226e-34
3.3806e-33
1.35276e-32
5.34541e-32
2.08589e-31
8.03831e-31
3.05927e-30
1.14991e-29
4.26889e-29
1.56525e-28
5.6687e-28
2.02779e-27
7.16496e-27
2.50072e-26
8.62155e-26
2.93618e-25
9.87794e-25
3.28278e-24
1.07774e-23
3.49535e-23
1.11989e-22
3.54464e-22
1.10837e-21
3.42385e-21
1.04488e-20
3.15019e-20
9.38276e-20
2.76087e-19
8.02565e-19
2.3048e-18
6.53888e-18
1.83267e-17
5.0743e-17
1.38794e-16
3.75026e-16
1.00102e-15
2.63944e-15
6.8747e-15
1.76873e-14
4.49497e-14
1.12833e-13
2.79756e-13
6.85082e-13
1.65696e-12
3.95797e-12
9.33701e-12
2.17521e-11
5.0042e-11
1.13681e-10
2.55001e-10
5.64772e-10
1.23498e-09
2.66609e-09
5.68192e-09
1.19534e-08
2.48221e-08
5.08747e-08
1.02909e-07
2.05425e-07
4.04645e-07
7.86455e-07
1.50805e-06
2.8527e-06
5.32299e-06
9.79641e-06
1.77805e-05
3.18226e-05
5.61553e-05
9.76911e-05
0.000167522
0.000283125
0.000471537
0.000773778
0.00125087
0.00199173
0.00312319
0.00482209
0.00732927
0.0109645
0.0161412
0.0233778
0.0333046
0.0466594
0.0642702
0.0870194
0.115787
0.15137
0.194386
0.245157
0.303596
0.369111
0.440536
0.51612
0.593589
0.670279
0.743353
0.810067
0.86806
0.915614
0.951843
0.976772
0.991399
0.997927
0.999747
0.999989
1
1
1
1
1
1
1
1
1
1
1
1
1
1
1
1
1
1
1
1
1
1
1
1
1
1
1
1
1
1
1
1
1
1
1
1
1
1
1
1
1
1
1
1
1
1
1
1
1
1
1
1
1
1
1
0.999999
0.999998
0.999997
0.999995
0.99999
0.999982
0.999968
0.999944
0.999902
0.999832
0.999717
0.999528
0.999225
0.998748
0.998006
0.996874
0.995173
0.992664
0.989026
0.983846
0.976604
0.966672
0.953309
0.93569
0.91293
0.884151
0.848555
0.805527
0.754744
0.696293
0.630769
0.559338
0.483751
0.406285
0.329601
0.256538
0.189838
0.131862
0.0843258
0.0481145
0.0232022
0.00858743
0.00206822
0.000252497
1.14172e-05
1.38144e-07
3.35181e-10
1.29091e-13
1.14356e-17
9.99655e-22
8.65097e-26
7.43753e-30
6.37402e-34
5.46064e-38
4.68555e-42
4.03073e-46
3.47663e-50
3.00526e-54
2.60157e-58
2.25367e-62
1.95249e-66
1.69108e-70
1.464e-74
1.26681e-78
1.09576e-82
9.47572e-87
8.19322e-91
7.08416e-95
6.1255e-99
5.29697e-103
4.58086e-107
3.96181e-111
3.42655e-115
2.96365e-119
2.56329e-123
2.21698e-127
1.91743e-131
1.65833e-135
1.43421e-139
1.24037e-143
1.07272e-147
9.27721e-152
8.02321e-156
6.9387e-160
6.00078e-164
5.18962e-168
4.4881e-172
3.88139e-176
3.35668e-180
2.90289e-184
2.51044e-188
2.17104e-192
1.87751e-196
1.62366e-200
1.40412e-204
1.21427e-208
1.05008e-212
9.08084e-217
7.85288e-221
6.79095e-225
5.87259e-229
5.0784e-233
4.39159e-237
3.79765e-241
3.28403e-245
2.83986e-249
2.45575e-253
2.12358e-257
1.83634e-261
1.58794e-265
1.37314e-269
1.18738e-273
1.02676e-277
8.87853e-282
7.67737e-286
6.63869e-290
5.7405e-294
4.96382e-298
4.2922e-302
3.71143e-306
3.20923e-310
2.77498e-314
2.39946e-318
1.97626e-322
0
0
0
0
0
0
0
0
0
0
0
0
0
0
0
0
0
0
0
0
0
0
0
0
0
0
0
0
0
0
0
0
0
0
0
0
0
0
0
0
0
0
0
0
0
0
0
0
0
0
0
0
0
0
0
0
0
0
0
0
0
0
0
0
0
0
0
0
0
0
0
0
0
0
0
0
0
0
0
0
0
0
0
0
0
0
0
0
0
0
0
0
0
0
0
0
0
0
0
0
0
0
0
0
0
0
0
0
0
0
0
0
0
0
0
0
0
0
0
0
0
0
0
0
0
0
0
0
0
0
0
0
0
0
0
0
0
0
0
0
0
0
0
0
0
0
0
0
)
;

boundaryField
{
    sides
    {
        type            zeroGradient;
    }
    empty
    {
        type            empty;
    }
}


// ************************************************************************* //
