/*--------------------------------*- C++ -*----------------------------------*\
| =========                 |                                                 |
| \\      /  F ield         | OpenFOAM: The Open Source CFD Toolbox           |
|  \\    /   O peration     | Version:  2312                                  |
|   \\  /    A nd           | Website:  www.openfoam.com                      |
|    \\/     M anipulation  |                                                 |
\*---------------------------------------------------------------------------*/
FoamFile
{
    version     2.0;
    format      ascii;
    arch        "LSB;label=32;scalar=64";
    class       volScalarField;
    location    "0.5";
    object      T;
}
// * * * * * * * * * * * * * * * * * * * * * * * * * * * * * * * * * * * * * //

dimensions      [0 0 0 1 0 0 0];

internalField   nonuniform List<scalar> 
1000
(
0
0
0
0
0
0
0
0
0
0
0
0
0
0
0
0
0
0
0
0
0
0
0
0
0
0
0
0
0
0
0
0
0
0
0
0
0
0
0
0
0
0
0
0
0
0
0
0
0
0
0
0
0
0
0
0
0
0
0
0
0
0
0
0
0
0
0
0
0
0
0
0
0
0
0
0
0
0
0
0
0
0
0
0
0
0
0
0
0
0
0
0
0
0
0
0
0
0
0
0
0
0
0
0
0
0
0
0
0
0
0
0
0
0
0
0
0
0
0
0
0
0
0
0
0
0
0
0
0
0
0
0
0
0
0
0
0
0
0
0
0
0
0
0
0
0
0
0
0
0
0
0
0
0
0
0
0
0
0
0
0
0
0
0
0
0
0
0
0
0
0
0
0
0
0
0
0
0
0
0
0
0
0
0
0
0
0
0
0
0
0
-5.92879e-323
3.89818e-321
-2.46218e-319
1.54462e-317
-9.61257e-316
5.93432e-314
-3.63426e-312
2.20788e-310
-1.3306e-308
7.95485e-307
-4.71771e-305
2.77551e-303
-1.61982e-301
9.37785e-300
-5.38581e-298
3.06838e-296
-1.73411e-294
9.72198e-293
-5.40679e-291
2.98284e-289
-1.6324e-287
8.86191e-286
-4.77232e-284
2.54937e-282
-1.35093e-280
7.10121e-279
-3.70276e-277
1.91519e-275
-9.82625e-274
5.00094e-272
-2.52465e-270
1.26425e-268
-6.27981e-267
3.09411e-265
-1.51217e-263
7.33052e-262
-3.52483e-260
1.68114e-258
-7.95305e-257
3.73181e-255
-1.73684e-253
8.01767e-252
-3.67099e-250
1.66709e-248
-7.50885e-247
3.35444e-245
-1.48626e-243
6.53124e-242
-2.84652e-240
1.2304e-238
-5.27458e-237
2.2425e-235
-9.45533e-234
3.95379e-232
-1.6396e-230
6.74286e-229
-2.74995e-227
1.11218e-225
-4.46058e-224
1.77404e-222
-6.99659e-221
2.73623e-219
-1.0611e-217
4.08028e-216
-1.55578e-214
5.88193e-213
-2.20496e-211
8.19565e-210
-3.02036e-208
1.10362e-206
-3.99812e-205
1.43602e-203
-5.11361e-202
1.80529e-200
-6.31839e-199
2.19231e-197
-7.54086e-196
2.57132e-194
-8.69154e-193
2.91229e-191
-9.67292e-190
3.18462e-188
-1.03926e-186
3.36158e-185
-1.07773e-183
3.4246e-182
-1.07853e-180
3.3664e-179
-1.04136e-177
3.19243e-176
-9.69883e-175
2.91999e-173
-8.71154e-172
2.57541e-170
-7.54441e-169
2.18986e-167
-6.29805e-166
1.79466e-164
-5.06675e-163
1.41721e-161
-3.9272e-160
1.0781e-158
-2.93191e-157
7.89839e-156
-2.1077e-154
5.57119e-153
-1.4586e-151
3.78233e-150
-9.71404e-149
2.47082e-147
-6.22393e-146
1.55258e-144
-3.83523e-143
9.38118e-142
-2.27213e-140
5.4488e-139
-1.29372e-137
3.0411e-136
-7.07706e-135
1.63037e-133
-3.718e-132
8.39271e-131
-1.87517e-129
4.14672e-128
-9.07551e-127
1.96569e-125
-4.21323e-124
8.93606e-123
-1.87535e-121
3.89406e-120
-7.99977e-119
1.62586e-117
-3.26882e-116
6.50093e-115
-1.27882e-113
2.48807e-112
-4.78748e-111
9.1099e-110
-1.71416e-108
3.18927e-107
-5.86678e-106
1.06695e-104
-1.91821e-103
3.40893e-102
-5.98793e-101
1.03953e-99
-1.78346e-98
3.02355e-97
-5.06482e-96
8.38231e-95
-1.37049e-93
2.21342e-92
-3.53089e-91
5.5628e-90
-8.65465e-89
1.32956e-87
-2.01662e-86
3.01961e-85
-4.46313e-84
6.51091e-83
-9.37362e-82
1.33163e-80
-1.86647e-79
2.58084e-78
-3.52005e-77
4.73508e-76
-6.28112e-75
8.21518e-74
-1.05926e-72
1.34628e-71
-1.68633e-70
2.08141e-69
-2.5311e-68
3.03197e-67
-3.57709e-66
4.15571e-65
-4.75326e-64
5.35163e-63
-5.92983e-62
6.46503e-61
-6.93392e-60
7.31429e-59
-7.58667e-58
7.73593e-57
-7.75263e-56
7.63395e-55
-7.3841e-54
7.01412e-53
-6.54109e-52
5.98682e-51
-5.37618e-50
4.73521e-49
-4.08923e-48
3.46116e-47
-2.8702e-46
2.33099e-45
-1.85318e-44
1.44162e-43
-1.09681e-42
8.15722e-42
-5.92716e-41
4.20531e-40
-2.91158e-39
1.96587e-38
-1.29351e-37
8.28784e-37
-5.16669e-36
3.13106e-35
-1.84269e-34
1.05203e-33
-5.81967e-33
3.1152e-32
-1.61117e-31
8.03772e-31
-3.86027e-30
1.78083e-29
-7.87049e-29
3.32186e-28
-1.33377e-27
5.06974e-27
-1.81278e-26
6.04514e-26
-1.85665e-25
5.14888e-25
-1.24392e-24
2.41389e-24
-2.78378e-24
-3.52559e-24
3.32364e-23
-1.15136e-22
2.48963e-22
-2.32524e-22
-7.03963e-22
4.00688e-21
-9.57138e-21
7.28629e-21
3.53422e-20
-1.53729e-19
2.41481e-19
2.39333e-19
-2.08703e-18
3.9625e-18
2.54322e-18
-2.89823e-17
4.89671e-17
6.4691e-17
-4.04208e-16
3.71319e-16
1.62997e-15
-4.62321e-15
-2.25626e-15
2.81963e-14
-2.18083e-14
-1.27386e-13
2.38532e-13
4.6914e-13
-1.5831e-12
-1.46731e-12
8.81472e-12
4.20319e-12
-4.53107e-11
-1.49121e-11
2.2333e-10
9.51701e-11
-1.05698e-09
-8.04781e-10
4.63538e-09
6.35857e-09
-1.71493e-08
-4.25688e-08
3.92488e-08
2.29941e-07
8.48633e-08
-8.9869e-07
-1.57408e-06
1.53571e-06
9.01622e-06
8.71594e-06
-2.13606e-05
-7.55321e-05
-6.58704e-05
0.000157529
0.00060268
0.00079723
-0.000324874
-0.00375795
-0.00871804
-0.0104847
0.000710307
0.0381425
0.11399
0.233273
0.389425
0.564318
0.733384
0.873691
0.971219
1.0241
1.04092
1.03558
1.02164
1.00846
1.00019
0.996975
0.996998
0.99825
0.999435
1.00009
1.00026
1.0002
1.00008
1.00001
0.999981
0.999983
0.999993
0.999999
1
1
1
1
1
1
1
1
1
1
1
1
1
1
1
1
1
1
1
1
1
1
1
1
1
1
1
1
1
1
1
1
1
1
1
1
1
1
1
1
1
1
1
1
1
1
1
1
1
1
1
1
1
1
1
1
1
1
1
0.999998
0.999991
0.999991
1.00002
1.00008
1.00007
0.999842
0.999397
0.999203
1.00032
1.00376
1.00872
1.01048
0.99929
0.961857
0.88601
0.766727
0.610575
0.435682
0.266616
0.126309
0.0287813
-0.0241012
-0.0409207
-0.0355844
-0.0216406
-0.00845562
-0.000188206
0.00302517
0.00300176
0.00175
0.000565034
-8.54184e-05
-0.000260857
-0.000195562
-8.17785e-05
-7.14432e-06
1.86403e-05
1.6666e-05
7.47986e-06
9.89827e-07
-1.3036e-06
-1.20553e-06
-5.15698e-07
-5.16615e-08
9.35757e-08
7.55697e-08
2.74474e-08
1.54851e-11
-6.34226e-09
-3.99239e-09
-1.05627e-09
2.31374e-10
3.66406e-10
1.67666e-10
2.14105e-11
-2.20335e-11
-1.67866e-11
-5.00457e-12
5.18775e-13
1.24283e-12
5.6808e-13
6.90781e-14
-6.81395e-14
-4.7619e-14
-1.21091e-14
2.2707e-15
3.22406e-15
1.19511e-15
3.70984e-17
-1.80623e-16
-9.16857e-17
-1.37759e-17
8.23803e-18
5.94358e-18
1.41419e-18
-2.77573e-19
-3.37351e-19
-1.06585e-19
3.53023e-21
1.70727e-20
6.75881e-21
4.16462e-22
-7.77631e-22
-3.79274e-22
-4.82871e-23
3.19802e-23
1.93296e-23
3.43999e-24
-1.18376e-24
-9.09236e-25
-1.99764e-25
3.89476e-26
3.99238e-26
1.02004e-26
-1.10281e-27
-1.65069e-27
-4.73324e-28
2.45002e-29
6.47224e-29
2.032e-29
-2.67167e-31
-2.42102e-30
-8.16097e-31
-1.12727e-32
8.6839e-32
3.08924e-32
9.9986e-34
-2.99958e-33
-1.10795e-33
-4.91782e-35
1.0012e-34
3.77888e-35
1.92831e-36
-3.23727e-36
-1.22889e-36
-6.5176e-38
1.01555e-37
3.8171e-38
1.94299e-39
-3.09281e-39
-1.13364e-39
-5.09514e-41
9.14189e-41
3.22057e-41
1.13817e-42
-2.62039e-42
-8.75095e-43
-1.93588e-44
7.27376e-44
2.27283e-44
1.17047e-46
-1.95214e-45
-5.63572e-46
8.98698e-48
5.05664e-47
1.33168e-47
-5.57687e-49
-1.26194e-48
-2.99054e-49
2.20988e-50
3.02886e-50
6.35766e-51
-7.25815e-52
-6.9795e-52
-1.27202e-52
2.1185e-53
1.54136e-53
2.373e-54
-5.65738e-55
-3.25615e-55
-4.06193e-56
1.40298e-56
6.56605e-57
6.18046e-58
-3.2586e-58
-1.26067e-58
-7.72731e-60
7.12512e-60
2.29707e-60
5.73992e-62
-1.47131e-61
-3.95439e-62
6.65958e-64
2.87443e-63
6.38919e-64
-4.32694e-65
-5.31708e-65
-9.58734e-66
1.28807e-66
9.31126e-67
1.31142e-67
-3.03259e-68
-1.542e-68
-1.57362e-69
6.25034e-70
2.40943e-70
1.49399e-71
-1.17027e-71
-3.53833e-72
-6.44837e-74
2.02484e-73
4.85149e-74
-1.60668e-75
-3.26575e-75
-6.14052e-76
6.08e-77
4.9303e-77
7.02261e-78
-1.36848e-78
-6.97562e-79
-6.924e-80
2.52274e-80
9.23657e-81
5.11401e-82
-4.11249e-82
-1.13962e-82
-8.08691e-85
6.10745e-84
1.29857e-84
-6.65308e-86
-8.37645e-86
-1.34302e-86
1.7584e-87
1.06744e-87
1.21447e-88
-3.17248e-89
-1.26559e-89
-8.67132e-91
4.80951e-91
1.3922e-91
2.82953e-93
-6.49901e-93
-1.40948e-93
5.16361e-95
8.01686e-95
1.2908e-95
-1.4646e-96
-9.1225e-97
-1.02879e-97
2.4567e-98
9.60763e-99
6.40132e-100
-3.36511e-100
-9.34448e-101
-1.65067e-102
4.06371e-102
8.32024e-103
-3.38812e-104
-4.45374e-104
-6.64677e-105
8.07307e-106
4.48455e-106
4.54159e-107
-1.18223e-107
-4.16382e-108
-2.28454e-109
1.42261e-109
3.55426e-110
1.61404e-112
-1.51161e-111
-2.7582e-112
1.59049e-113
1.45764e-113
1.89478e-114
-2.82123e-115
-1.28986e-115
-1.0758e-116
3.48382e-117
1.04985e-117
3.86625e-119
-3.62553e-119
-7.81853e-120
1.24276e-121
3.36102e-121
5.24392e-122
-4.4607e-123
-2.83699e-123
-3.04735e-124
5.98439e-125
2.19839e-125
1.37019e-126
-6.2002e-127
-1.56354e-127
-2.34862e-129
5.5619e-129
1.01162e-129
-4.22477e-131
-4.49114e-131
-5.8168e-132
7.1247e-133
3.31614e-133
2.79868e-134
-7.57041e-135
-2.24962e-135
-9.06049e-137
6.64356e-137
1.39726e-137
-1.2186e-139
-5.15931e-139
-7.83664e-140
5.62248e-141
3.64036e-141
3.83356e-142
-6.53672e-143
-2.3582e-143
-1.48167e-144
5.7238e-145
1.4044e-145
2.66619e-147
-4.31426e-147
-7.63558e-148
2.49341e-149
2.92423e-149
3.71521e-150
-3.86723e-151
-1.81453e-151
-1.53816e-152
3.51985e-153
1.03736e-153
4.58565e-155
-2.61764e-155
-5.45591e-156
-1.299e-159
1.71954e-157
2.61278e-158
-1.42007e-159
-1.02768e-159
-1.10986e-160
1.49859e-161
5.65787e-162
3.90315e-163
-1.13695e-163
-2.87982e-164
-8.65575e-166
7.35355e-166
1.35055e-166
-1.8493e-168
-4.27169e-168
-5.76318e-169
4.03759e-170
2.2774e-170
2.1708e-171
-3.41022e-172
-1.12471e-172
-6.6461e-174
2.24362e-174
5.15641e-175
1.14103e-176
-1.28806e-176
-2.18578e-177
4.38941e-179
6.71472e-179
8.46032e-180
-6.3473e-181
-3.23482e-181
-2.9032e-182
4.64951e-183
1.45146e-183
8.16525e-185
-2.73685e-185
-6.07796e-186
-1.34156e-187
1.42203e-187
2.36787e-188
-3.9231e-190
-6.7549e-190
-8.49825e-191
5.57928e-192
2.98143e-192
2.74732e-193
-3.79418e-194
-1.23229e-194
-7.57199e-196
2.06322e-196
4.78353e-197
1.47581e-198
-9.90824e-199
-1.74216e-199
4.25323e-202
4.36007e-201
5.92041e-202
-2.50534e-203
-1.7889e-203
-1.85385e-204
1.77786e-205
6.90549e-206
5.20375e-207
-9.36939e-208
-2.51932e-208
-1.22138e-209
4.27831e-210
8.69974e-211
1.82646e-212
-1.77963e-212
-2.84018e-213
2.63374e-215
6.89736e-215
8.72749e-216
-3.96249e-217
-2.52062e-217
-2.50061e-218
2.32155e-219
8.74497e-220
6.55346e-221
-1.07069e-221
-2.89158e-222
-1.50423e-223
4.36015e-224
9.13052e-225
2.65816e-226
-1.63411e-226
-2.75436e-227
-1.35427e-229
5.74902e-229
7.92893e-230
-1.75475e-231
-1.91968e-231
-2.17137e-232
1.1788e-233
6.1253e-234
5.62291e-235
-5.36096e-236
-1.87592e-236
-1.36146e-237
2.07781e-238
5.53091e-239
3.01445e-240
-7.32253e-241
-1.57314e-241
-5.79947e-243
2.41263e-243
4.32244e-244
8.2373e-246
-7.54186e-246
-1.14827e-246
-5.53449e-250
2.25665e-248
2.95037e-249
-5.75743e-251
-6.50101e-251
-7.3312e-252
3.05932e-253
1.8106e-253
1.7606e-254
-1.18355e-255
-4.89034e-256
-4.08101e-257
3.97897e-258
1.28409e-258
9.11027e-260
-1.22832e-260
-3.28551e-261
-1.36326e-262
)
;

boundaryField
{
    sides
    {
        type            zeroGradient;
    }
    empty
    {
        type            empty;
    }
}


// ************************************************************************* //
