/*--------------------------------*- C++ -*----------------------------------*\
| =========                 |                                                 |
| \\      /  F ield         | OpenFOAM: The Open Source CFD Toolbox           |
|  \\    /   O peration     | Version:  2312                                  |
|   \\  /    A nd           | Website:  www.openfoam.com                      |
|    \\/     M anipulation  |                                                 |
\*---------------------------------------------------------------------------*/
FoamFile
{
    version     2.0;
    format      ascii;
    arch        "LSB;label=32;scalar=64";
    class       volScalarField;
    location    "3";
    object      T;
}
// * * * * * * * * * * * * * * * * * * * * * * * * * * * * * * * * * * * * * //

dimensions      [0 0 0 1 0 0 0];

internalField   nonuniform List<scalar> 
1000
(
1.01061e-29
-1.27633e-29
2.76369e-29
-5.45025e-29
1.08661e-28
-2.15659e-28
4.27099e-28
-8.43707e-28
1.66255e-27
-3.26791e-27
6.40727e-27
-1.25308e-26
2.44444e-26
-4.75632e-26
9.23099e-26
-1.78692e-25
3.45015e-25
-6.64412e-25
1.27615e-24
-2.44467e-24
4.6708e-24
-8.90034e-24
1.69146e-23
-3.20589e-23
6.05985e-23
-1.14234e-22
2.14755e-22
-4.02622e-22
7.52753e-22
-1.40346e-21
2.60938e-21
-4.83787e-21
8.94425e-21
-1.64892e-20
3.03121e-20
-5.55627e-20
1.01554e-19
-1.85074e-19
3.36297e-19
-6.0929e-19
1.10062e-18
-1.98226e-18
3.55943e-18
-6.37221e-18
1.13732e-17
-2.0237e-17
3.58985e-17
-6.34838e-17
1.11917e-16
-1.96684e-16
3.44565e-16
-6.01718e-16
1.04743e-15
-1.81744e-15
3.1433e-15
-5.41867e-15
9.31048e-15
-1.59445e-14
2.72147e-14
-4.62951e-14
7.84867e-14
-1.3261e-13
2.23286e-13
-3.74666e-13
6.26486e-13
-1.04388e-12
1.7332e-12
-2.86745e-12
4.72691e-12
-7.76393e-12
1.27056e-11
-2.07159e-11
3.36507e-11
-5.44568e-11
8.77939e-11
-1.40999e-10
2.25574e-10
-3.59478e-10
5.70622e-10
-9.02195e-10
1.42073e-09
-2.22827e-09
3.48056e-09
-5.41426e-09
8.38722e-09
-1.2938e-08
1.98733e-08
-3.03951e-08
4.6286e-08
-7.01756e-08
1.05923e-07
-1.59164e-07
2.38078e-07
-3.54484e-07
5.25352e-07
-7.74916e-07
1.13759e-06
-1.66193e-06
2.41607e-06
-3.49502e-06
5.0304e-06
-7.20337e-06
1.02617e-05
-1.45417e-05
2.04973e-05
-2.87356e-05
4.00638e-05
-5.5546e-05
7.65738e-05
-0.000104952
0.000143003
-0.000193681
0.00026072
-0.00034878
0.000463624
-0.000612291
0.000803279
-0.00104671
0.00135447
-0.0017403
0.00221977
-0.00281022
0.00353044
-0.00440026
0.0054398
-0.00666851
0.00810389
-0.00975979
0.0116445
-0.0137585
0.0160919
-0.018622
0.0213106
-0.0241019
0.0269212
-0.0296738
0.032246
-0.0345074
0.0363151
-0.03752
0.0379758
-0.0375493
0.036133
-0.033658
0.0301073
-0.0255274
0.0200371
-0.013831
0.00717845
-0.000413547
-0.00608178
0.0119031
-0.0166552
0.0199893
-0.0216408
0.0214651
-0.0194657
0.0158107
-0.0108328
0.00501059
0.00107004
-0.00677207
0.0114767
-0.0146583
0.0159556
-0.0152286
0.0125903
-0.00840703
0.00326176
0.00211733
-0.0069561
0.0105487
-0.0123693
0.0121634
-0.00999951
0.00626983
-0.0016347
-0.00308423
0.00704621
-0.00954512
0.0101457
-0.00877402
0.00574112
-0.00168917
-0.00253266
0.00604148
-0.00810833
0.00831948
-0.00667336
0.00358722
0.000193083
-0.00376393
0.00627808
-0.00715158
0.00621116
-0.00374167
0.000416911
0.00287333
-0.00525785
0.00611909
-0.00526372
0.0029784
4.94625e-05
-0.00292788
0.00481982
-0.00519097
0.00397039
-0.00157202
-0.00123377
0.0035628
-0.00469923
0.00432714
-0.00263412
0.000248975
0.00196931
-0.00322287
0.00304742
-0.00146979
-0.00100781
0.00359487
-0.00550631
0.00625665
-0.00584479
0.00475759
-0.00378745
0.0037311
-0.00508495
0.00785698
-0.0115715
0.0154667
-0.0188062
0.0211763
-0.0226431
0.0237011
-0.0250322
0.0271762
-0.0302565
0.0338824
-0.0372753
0.0395657
-0.0401298
0.0388166
-0.0359626
0.0321907
-0.0280929
0.0239527
-0.019644
0.0147615
-0.00891855
0.00206439
0.00534465
-0.0124145
0.0181014
-0.0215852
0.0225495
-0.0212382
0.0182709
-0.0143272
0.0098728
-0.00507448
-6.00187e-05
0.00541441
-0.0105438
0.0146578
-0.0168491
0.0164673
-0.0134448
0.00839575
-0.0024271
-0.00324746
0.00769534
-0.0104686
0.0115522
-0.0111388
0.0094069
-0.00645933
0.00245573
0.00217504
-0.00663
0.00986816
-0.0109695
0.0095429
-0.0059539
0.00122809
0.00333388
-0.00663272
0.0080994
-0.00774066
0.00594361
-0.00321545
3.66801e-05
0.00311748
-0.00568685
0.00703269
-0.0066309
0.00437729
-0.000800406
-0.00301042
0.00579277
-0.00663871
0.00537904
-0.00261458
-0.000605629
0.00325586
-0.00469098
0.00474061
-0.00358538
0.0015856
0.000798123
-0.00299679
0.00436341
-0.00435262
0.00281222
-0.000194862
-0.00251696
0.00421438
-0.00420086
0.002548
-4.54025e-05
-0.00222263
0.00340757
-0.00322686
0.0019551
-0.000173114
-0.00150853
0.00260332
-0.00279472
0.00198213
-0.000374123
-0.00146236
0.00274242
-0.00282078
0.0015864
0.000391018
-0.00212324
0.00275034
-0.00202517
0.000418222
0.00120616
-0.00209667
0.00196863
-0.00103143
-0.000228149
0.00129757
-0.00179036
0.00151745
-0.000552834
-0.000719342
0.00168934
-0.00180546
0.000934488
0.00047224
-0.0015994
0.00177824
-0.00093196
-0.000381221
0.00136034
-0.00148715
0.000803546
0.000210051
-0.000991351
0.00119969
-0.000809521
4.33585e-05
0.000736392
-0.00114218
0.000921991
-0.000140609
-0.000768932
0.00122067
-0.00087985
-4.87325e-05
0.000926787
-0.00114645
0.000587525
0.000311549
-0.000915926
0.000868143
-0.00029126
-0.000383402
0.00075085
-0.000652797
0.000192426
0.000364495
-0.000706868
0.000612451
-9.86665e-05
-0.000518021
0.000788398
-0.000474314
-0.000210986
0.000732279
-0.000672084
9.43024e-05
0.000515288
-0.000678833
0.000320093
0.00022493
-0.000536564
0.000438901
-6.37591e-05
-0.000313012
0.000461749
-0.000299988
-7.63931e-05
0.000418498
-0.000456865
0.000121232
0.000339768
-0.000526045
0.000252013
0.000245937
-0.000512773
0.000313263
0.000144905
-0.000433363
0.000322584
3.72391e-05
-0.000313833
0.000308208
-7.51604e-05
-0.0001867
0.000296457
-0.00018216
-8.36569e-05
0.00030014
-0.00026512
-2.49537e-05
0.000313154
-0.000304996
-1.03132e-05
0.00031549
-0.000295182
-1.8272e-05
0.000287994
-0.000250521
-1.79921e-05
0.000229123
-0.000203501
1.04175e-05
0.0001615
-0.000185809
5.98375e-05
0.000119844
-0.000205482
9.86907e-05
0.000125116
-0.000238142
9.5201e-05
0.000164293
-0.000244576
4.69793e-05
0.000196792
-0.000205431
-1.1563e-05
0.000188803
-0.00014283
-3.76296e-05
0.000147293
-0.0001026
-2.30189e-05
0.000116384
-0.000106874
-6.62436e-06
0.000130704
-0.000125124
-3.38643e-05
0.000171329
-0.000103801
-0.00010037
0.000180547
-3.08944e-05
-0.000149214
0.000130003
4.24773e-05
-0.000137776
6.10021e-05
6.30498e-05
-9.54329e-05
3.33693e-05
4.82821e-05
-8.53323e-05
4.00706e-05
6.31846e-05
-0.000109234
1.39466e-05
0.000117911
-9.68996e-05
-6.49267e-05
0.00013917
-1.62346e-05
-0.000122277
8.09945e-05
6.13674e-05
-9.89139e-05
7.87149e-06
6.70121e-05
-5.03786e-05
-6.86486e-06
4.86653e-05
-4.96893e-05
-8.19927e-06
7.69859e-05
-4.88468e-05
-6.60408e-05
9.6128e-05
2.56946e-05
-0.000115042
2.40563e-05
0.000101071
-6.20144e-05
-6.31677e-05
7.42438e-05
1.79892e-05
-5.80561e-05
1.76176e-05
2.10359e-05
-3.26821e-05
2.33886e-05
2.48754e-05
-6.14483e-05
2.11322e-07
8.34742e-05
-3.22059e-05
-8.60653e-05
5.99238e-05
7.18464e-05
-7.47374e-05
-4.74811e-05
7.24957e-05
2.09659e-05
-5.38177e-05
8.37987e-07
2.3103e-05
-1.38051e-05
1.31382e-05
1.70593e-05
-4.80257e-05
-1.25279e-05
7.56858e-05
3.86889e-06
-9.2059e-05
4.83485e-06
9.51574e-05
-1.02659e-05
-8.49256e-05
1.07067e-05
6.2916e-05
-6.39029e-06
-3.19512e-05
-6.60545e-07
-4.13141e-06
7.25772e-06
4.06744e-05
-1.00243e-05
-7.24423e-05
6.5491e-06
9.40765e-05
3.52786e-06
-0.000100899
-1.78133e-05
9.00842e-05
3.11894e-05
-6.20154e-05
-3.68548e-05
2.13722e-05
2.84394e-05
2.26923e-05
-2.85277e-06
-5.79538e-05
-3.69965e-05
7.2424e-05
8.09329e-05
-5.91233e-05
-0.000113092
2.08056e-05
0.000117079
2.78329e-05
-8.38868e-05
-6.30573e-05
1.95972e-05
6.12566e-05
5.18553e-05
-1.22607e-05
-9.53104e-05
-6.9394e-05
8.1256e-05
0.000143943
-6.96509e-06
-0.000162913
-9.10961e-05
9.98073e-05
0.000147936
2.11912e-05
-0.000108115
-0.000123341
-2.55557e-05
0.000119057
0.000170054
1.80508e-05
-0.000202814
-0.00020266
6.10985e-05
0.000272407
0.000168763
-0.00012097
-0.000275851
-0.000160926
0.000103072
0.000298227
0.000242487
-7.69622e-05
-0.000395644
-0.000352698
8.46973e-05
0.000496397
0.000445066
-4.10163e-05
-0.000519261
-0.000579349
-0.000157408
0.000461313
0.000808732
0.000522377
-0.000302176
-0.00103966
-0.00100598
-0.000106209
0.00102259
0.00152315
0.000959378
-0.000413511
-0.00178746
-0.0022018
-0.00111978
0.00106575
0.00306788
0.00345909
0.0016433
-0.00169113
-0.00488534
-0.00608049
-0.00406926
0.000993022
0.00729992
0.0118737
0.0117922
0.00557393
-0.00597282
-0.0196768
-0.0305211
-0.0325653
-0.0201943
0.0105656
0.0611588
0.13037
0.214804
0.309581
0.409057
0.507618
0.600484
0.684239
0.756894
0.817641
0.86662
0.904769
0.933612
0.954869
0.970111
0.980664
0.987707
0.992322
0.99536
0.997333
0.998506
0.999109
0.999428
0.999687
0.999916
1.00002
0.999969
0.99989
0.99992
1.00004
1.00011
1.00003
0.999908
0.999892
1.00001
1.00013
1.00009
0.999937
0.999852
0.999942
1.00011
1.00016
1.00002
0.999845
0.999836
1.00002
1.0002
1.00017
0.999946
0.999763
0.999824
1.00009
1.00028
1.0002
0.999892
0.999666
0.99976
1.00011
1.0004
1.00032
0.999912
0.99954
0.999561
1
1.00051
1.00061
1.00017
0.999506
0.999171
0.999508
1.00033
1.00101
1.00098
1.00013
0.999013
0.998464
0.999002
1.00042
1.00183
1.00221
1.00108
0.998919
0.996969
0.996567
0.998327
1.00166
1.00491
1.00612
1.00406
0.998962
0.992692
0.98817
0.988232
0.99439
1.00593
1.0197
1.03057
1.03256
1.02014
0.989417
0.938886
0.869668
0.785167
0.690367
0.590949
0.492439
0.399538
0.315712
0.243059
0.182385
0.133444
0.0952379
0.0663263
0.0450893
0.0299298
0.0194041
0.0122896
0.00760522
0.00459912
0.00271806
0.00156992
0.000886162
0.000488795
0.000263419
0.000138665
7.12755e-05
3.57584e-05
1.74998e-05
8.34817e-06
3.87843e-06
1.75276e-06
7.69378e-07
3.27392e-07
1.34706e-07
5.34041e-08
2.02989e-08
7.34289e-09
2.49819e-09
7.82817e-10
2.1632e-10
4.67154e-11
3.61297e-12
-3.75593e-12
-3.09277e-12
-1.63668e-12
-7.14962e-13
-2.73049e-13
-9.20105e-14
-2.67082e-14
-6.09251e-15
-6.64499e-16
3.23591e-16
2.92462e-16
1.4917e-16
6.00905e-17
2.02737e-17
5.63141e-18
1.13018e-18
4.15433e-20
-1.06504e-19
-7.04581e-20
-3.08603e-20
-1.07103e-20
-2.96808e-21
-5.74686e-22
-1.05424e-23
5.77203e-23
3.52308e-23
1.43304e-23
4.51502e-24
1.06522e-24
1.28091e-25
-4.04966e-26
-3.66942e-26
-1.65235e-26
-5.46434e-27
-1.34062e-27
-1.81319e-28
3.74872e-29
3.92299e-29
1.7709e-29
5.69815e-30
1.31371e-30
1.40251e-31
-5.51086e-32
-4.33034e-32
-1.76202e-32
-5.09755e-33
-9.74096e-34
-1.84845e-35
8.38215e-35
4.52481e-35
1.5407e-35
3.64629e-36
4.18614e-37
-1.2729e-37
-1.03334e-37
-4.03415e-38
-1.07526e-38
-1.68513e-39
1.39379e-40
2.21336e-40
9.6516e-41
2.75347e-41
4.85295e-42
-7.96279e-44
-4.66212e-43
-2.17675e-43
-6.37599e-44
-1.15607e-44
9.3672e-48
9.98296e-46
4.70013e-46
1.35738e-46
2.36551e-47
-4.29813e-49
-2.18463e-48
-9.73122e-49
-2.65991e-49
-4.13258e-50
3.05404e-51
4.77606e-51
1.91241e-51
4.74104e-52
5.82196e-53
-1.21304e-53
-1.00702e-53
-3.50093e-54
-7.47646e-55
-5.2352e-56
3.59031e-56
1.97932e-56
5.81423e-57
9.83329e-58
-2.50527e-59
-8.65492e-59
-3.51946e-59
-8.42538e-60
-9.09242e-61
2.52621e-61
1.75348e-61
5.48547e-62
9.89554e-63
4.97233e-65
-7.13549e-64
-2.99848e-64
-7.1502e-65
-7.49023e-66
2.14383e-66
1.42206e-66
4.2473e-67
7.00465e-68
-2.14549e-69
-5.87927e-69
-2.21222e-69
-4.6944e-70
-3.10915e-71
2.06966e-71
1.03968e-71
2.66559e-72
3.26745e-73
-5.65708e-74
-4.47451e-74
-1.35722e-74
-2.21121e-75
7.00854e-77
1.7768e-76
6.37159e-77
1.24643e-77
4.81378e-79
-6.52658e-79
-2.80508e-79
-6.2914e-80
-5.16857e-81
2.21279e-81
1.17203e-81
2.93714e-82
3.29926e-83
-6.86723e-84
-4.69207e-84
-1.29149e-84
-1.73704e-85
1.91436e-86
1.8147e-86
5.4115e-87
8.17748e-88
-4.59489e-89
-6.83154e-89
-2.17838e-89
-3.55858e-90
8.44834e-92
2.52054e-91
8.4738e-92
1.45596e-92
-6.08294e-95
-9.16929e-94
-3.19864e-94
-5.65435e-95
-3.64315e-97
3.30419e-96
1.17492e-96
2.09566e-97
2.09905e-99
-1.18275e-98
-4.20608e-99
-7.43201e-100
-5.46468e-102
4.20813e-101
1.46813e-101
2.52313e-102
-3.71944e-105
-1.48587e-103
-4.99349e-104
-8.18684e-105
1.4006e-106
5.18975e-106
1.65239e-106
2.52873e-107
-1.04129e-108
-1.78515e-108
-5.3066e-109
-7.38099e-110
5.68928e-111
6.01762e-111
1.64828e-111
2.00971e-112
-2.65331e-113
-1.9779e-113
-4.92955e-114
-4.98109e-115
1.11221e-115
6.30738e-116
1.41109e-116
1.06409e-117
-4.29151e-118
-1.9418e-118
-3.83426e-119
-1.64776e-120
1.5434e-120
5.74148e-121
9.76752e-122
-4.07629e-125
-5.20742e-123
-1.62304e-123
-2.24602e-124
1.24478e-125
)
;

boundaryField
{
    sides
    {
        type            zeroGradient;
    }
    empty
    {
        type            empty;
    }
}


// ************************************************************************* //
