/*--------------------------------*- C++ -*----------------------------------*\
| =========                 |                                                 |
| \\      /  F ield         | OpenFOAM: The Open Source CFD Toolbox           |
|  \\    /   O peration     | Version:  2312                                  |
|   \\  /    A nd           | Website:  www.openfoam.com                      |
|    \\/     M anipulation  |                                                 |
\*---------------------------------------------------------------------------*/
FoamFile
{
    version     2.0;
    format      ascii;
    arch        "LSB;label=32;scalar=64";
    class       volScalarField;
    location    "3.5";
    object      T;
}
// * * * * * * * * * * * * * * * * * * * * * * * * * * * * * * * * * * * * * //

dimensions      [0 0 0 1 0 0 0];

internalField   nonuniform List<scalar> 
1000
(
0
0
0
0
0
0
0
0
0
0
0
0
0
0
0
0
0
0
0
0
0
0
0
0
0
0
0
0
0
0
0
0
0
0
0
0
0
0
0
0
0
0
0
0
0
0
0
0
0
0
0
0
0
0
0
0
0
0
0
0
0
0
0
0
0
0
0
0
0
0
0
0
0
0
0
0
0
0
0
0
0
0
0
0
0
0
0
0
0
0
0
0
0
0
0
0
0
0
0
0
0
0
0
0
0
0
0
0
0
0
0
0
0
0
0
0
0
0
0
0
0
0
0
0
0
0
0
0
0
0
0
0
0
0
0
0
0
0
0
0
0
0
0
0
0
0
0
0
0
0
0
0
0
0
0
0
0
0
0
0
0
0
0
0
0
0
0
0
0
0
0
0
0
0
0
0
0
0
0
0
0
0
0
0
0
0
0
0
0
0
0
0
0
0
0
0
0
0
0
0
0
0
0
0
0
0
0
0
0
0
0
0
0
0
0
0
0
0
0
0
0
0
0
0
0
0
0
0
0
0
0
0
0
0
0
0
0
0
0
0
0
0
0
0
0
0
0
0
0
0
0
0
0
0
0
0
0
0
0
0
0
0
0
0
0
0
0
0
0
0
0
0
0
0
0
0
0
0
0
0
0
0
0
0
0
0
0
0
0
0
0
0
0
0
0
0
0
0
0
0
0
0
0
0
0
0
0
0
0
0
0
0
0
0
0
0
0
0
0
0
0
0
0
0
0
0
0
0
0
0
0
0
0
0
0
0
0
0
0
0
0
0
0
0
0
0
0
0
0
0
0
0
0
0
0
0
0
0
0
0
0
0
0
0
0
0
0
0
0
0
0
0
0
0
0
0
0
0
0
0
0
0
0
0
0
0
0
0
0
0
0
0
0
0
0
0
0
0
0
0
0
0
0
0
0
0
0
0
0
0
0
0
0
0
0
0
0
0
0
0
0
0
0
0
0
0
0
0
0
0
0
0
0
0
0
0
0
0
0
0
0
0
0
0
0
0
0
0
0
0
1.13734e-100
2.54453e-98
2.84727e-96
2.12466e-94
1.18944e-92
5.32867e-91
1.98996e-89
6.37171e-88
1.78569e-86
4.44976e-85
9.98255e-84
2.03651e-82
3.80954e-81
6.58006e-80
1.05569e-78
1.58128e-77
2.22119e-76
2.93741e-75
3.66989e-74
4.34503e-73
4.88865e-72
5.23995e-71
5.36284e-70
5.25157e-69
4.92985e-68
4.44407e-67
3.85325e-66
3.21823e-65
2.59265e-64
2.01727e-63
1.51773e-62
1.10539e-61
7.80157e-61
5.34094e-60
3.54994e-59
2.29281e-58
1.44017e-57
8.80431e-57
5.24236e-56
3.04236e-55
1.722e-54
9.51182e-54
5.13054e-53
2.70382e-52
1.39297e-51
7.01904e-51
3.46102e-50
1.6708e-49
7.90012e-49
3.66035e-48
1.66254e-47
7.40554e-47
3.23625e-46
1.388e-45
5.84456e-45
2.41703e-44
9.82019e-44
3.92109e-43
1.53913e-42
5.94093e-42
2.25564e-41
8.42639e-41
3.09804e-40
1.12129e-39
3.9962e-39
1.40274e-38
4.85079e-38
1.65293e-37
5.55132e-37
1.83795e-36
6.00013e-36
1.9318e-35
6.13518e-35
1.92238e-34
5.94398e-34
1.81394e-33
5.46455e-33
1.62535e-32
4.77387e-32
1.38484e-31
3.96831e-31
1.12345e-30
3.14276e-30
8.68844e-30
2.37416e-29
6.41324e-29
1.71279e-28
4.52323e-28
1.18133e-27
3.05156e-27
7.79762e-27
1.97125e-26
4.93079e-26
1.2205e-25
2.98986e-25
7.24955e-25
1.74006e-24
4.13483e-24
9.72833e-24
2.26648e-23
5.22928e-23
1.19496e-22
2.70475e-22
6.06467e-22
1.34721e-21
2.96516e-21
6.46679e-21
1.39764e-20
2.99369e-20
6.35564e-20
1.33749e-19
2.7902e-19
5.77074e-19
1.18335e-18
2.4061e-18
4.85141e-18
9.70082e-18
1.92384e-17
3.78425e-17
7.3837e-17
1.42916e-16
2.74432e-16
5.22832e-16
9.88311e-16
1.85378e-15
3.45053e-15
6.37386e-15
1.16852e-14
2.12627e-14
3.84036e-14
6.88533e-14
1.22547e-13
2.16537e-13
3.79872e-13
6.61676e-13
1.1444e-12
1.96546e-12
3.35216e-12
5.67786e-12
9.55137e-12
1.59585e-11
2.64843e-11
4.3659e-11
7.14945e-11
1.16307e-10
1.87974e-10
3.01833e-10
4.81543e-10
7.63349e-10
1.20241e-09
1.8821e-09
2.92763e-09
4.52574e-09
6.95321e-09
1.06175e-08
1.61145e-08
2.43104e-08
3.64558e-08
5.43446e-08
8.05345e-08
1.18648e-07
1.73785e-07
2.53078e-07
3.6644e-07
5.27567e-07
7.55257e-07
1.07516e-06
1.52204e-06
2.14278e-06
3.00011e-06
4.1776e-06
5.78577e-06
7.96997e-06
1.09202e-05
1.48833e-05
2.01779e-05
2.72133e-05
3.65114e-05
4.87343e-05
6.47166e-05
8.55041e-05
0.000112399
0.000147015
0.000191337
0.000247792
0.000319333
0.000409529
0.000522666
0.000663863
0.000839194
0.00105583
0.00132215
0.00164797
0.00204459
0.00252505
0.00310425
0.0037991
0.00462869
0.0056144
0.00678006
0.00815199
0.00975908
0.0116328
0.0138074
0.0163192
0.0192073
0.0225128
0.0262788
0.0305499
0.0353721
0.0407919
0.0468562
0.0536115
0.0611031
0.0693748
0.0784676
0.0884197
0.0992648
0.111032
0.123745
0.137421
0.15207
0.167695
0.184291
0.201844
0.220331
0.239723
0.259977
0.281047
0.302874
0.325395
0.348535
0.372217
0.396356
0.420861
0.445639
0.470594
0.495627
0.52064
0.545535
0.570216
0.59459
0.618567
0.642064
0.665001
0.687307
0.708916
0.729771
0.749822
0.769029
0.787358
0.804784
0.821291
0.836868
0.851515
0.865237
0.878045
0.889957
0.900995
0.911188
0.920565
0.929161
0.937014
0.944162
0.950646
0.956507
0.961785
0.966523
0.970761
0.974537
0.977892
0.980861
0.98348
0.985782
0.987798
0.989556
0.991084
0.992406
0.993545
0.994521
0.995353
0.996055
0.996643
0.997128
0.99752
0.997828
0.998057
0.998211
0.998295
0.998306
0.998245
0.998108
0.997888
0.997579
0.997171
0.996651
0.996004
0.995213
0.994259
0.993119
0.991768
0.990178
0.988317
0.986153
0.98365
0.980768
0.977468
0.973706
0.969439
0.964619
0.959201
0.953139
0.946384
0.938894
0.930623
0.921531
0.911579
0.900734
0.888967
0.876254
0.862579
0.84793
0.832305
0.815709
0.798156
0.779669
0.760277
0.740023
0.718953
0.697126
0.674605
0.651465
0.627783
0.603644
0.579139
0.554361
0.529406
0.504373
0.47936
0.454465
0.429784
0.40541
0.381433
0.357936
0.334999
0.312693
0.291084
0.270229
0.250178
0.230971
0.212642
0.195216
0.178709
0.163132
0.148485
0.134763
0.121955
0.110043
0.0990046
0.0888124
0.0794351
0.0708385
0.0629855
0.0558372
0.0493532
0.0434925
0.0382137
0.0334755
0.0292373
0.0254595
0.0221036
0.0191327
0.0165116
0.014207
0.0121876
0.0104239
0.00888888
0.00755726
0.00640595
0.00541386
0.00456179
0.00383239
0.00321004
0.00268078
0.00223215
0.00185309
0.00153385
0.00126587
0.00104162
0.000854579
0.000699064
0.000570173
0.000463685
0.000375983
0.000303981
0.000245052
0.000196973
0.000157869
0.000126162
0.000100532
7.98778e-05
6.32849e-05
4.9995e-05
3.93831e-05
3.09351e-05
2.42302e-05
1.89245e-05
1.47388e-05
1.14464e-05
8.86442e-06
6.84555e-06
5.27164e-06
4.04824e-06
3.10008e-06
2.36738e-06
1.80284e-06
1.36911e-06
1.03686e-06
7.83074e-07
5.8978e-07
4.42981e-07
3.31811e-07
2.47862e-07
1.84649e-07
1.37184e-07
1.01645e-07
7.5109e-08
5.53514e-08
4.06816e-08
2.98198e-08
2.17996e-08
1.58941e-08
1.15576e-08
8.38206e-09
6.06295e-09
4.37393e-09
3.14715e-09
2.25853e-09
1.61658e-09
1.15408e-09
8.21759e-10
5.83616e-10
4.13416e-10
2.92096e-10
2.05849e-10
1.44696e-10
1.0145e-10
7.09484e-11
4.9491e-11
3.44357e-11
2.38997e-11
1.65455e-11
1.14255e-11
7.87009e-12
5.40752e-12
3.70623e-12
2.53388e-12
1.72807e-12
1.17561e-12
7.97795e-13
5.40072e-13
3.64708e-13
2.45683e-13
1.651e-13
1.10677e-13
7.40147e-14
4.9377e-14
3.28612e-14
2.1817e-14
1.44499e-14
9.54759e-15
6.2934e-15
4.1385e-15
2.71499e-15
1.77691e-15
1.16021e-15
7.55757e-16
4.91144e-16
3.18432e-16
2.05973e-16
1.3292e-16
8.55782e-17
5.49702e-17
3.52279e-17
2.2524e-17
1.43683e-17
9.14467e-18
5.80681e-18
3.67889e-18
2.32545e-18
1.4666e-18
9.22853e-19
5.79393e-19
3.62941e-19
2.26842e-19
1.41462e-19
8.80205e-20
5.46463e-20
3.38511e-20
2.09229e-20
1.29036e-20
7.94041e-21
4.8755e-21
2.98705e-21
1.82607e-21
1.11389e-21
6.77991e-22
4.11777e-22
2.49551e-22
1.50911e-22
9.10634e-23
5.48321e-23
3.29455e-23
1.97528e-23
1.18177e-23
7.05531e-24
4.20318e-24
2.49873e-24
1.48233e-24
8.77521e-25
5.18391e-25
3.05596e-25
1.79775e-25
1.05538e-25
6.18276e-26
3.61457e-26
2.10879e-26
1.22776e-26
7.13344e-27
4.13612e-27
2.39331e-27
1.38203e-27
7.96435e-28
4.58037e-28
2.62888e-28
1.50578e-28
8.60751e-29
4.91042e-29
2.79569e-29
1.5885e-29
9.00782e-30
5.09784e-30
2.87931e-30
1.62305e-30
9.13089e-31
5.1267e-31
2.87282e-31
1.60666e-31
8.96791e-32
4.99584e-32
)
;

boundaryField
{
    sides
    {
        type            zeroGradient;
    }
    empty
    {
        type            empty;
    }
}


// ************************************************************************* //
