/*--------------------------------*- C++ -*----------------------------------*\
| =========                 |                                                 |
| \\      /  F ield         | OpenFOAM: The Open Source CFD Toolbox           |
|  \\    /   O peration     | Version:  2312                                  |
|   \\  /    A nd           | Website:  www.openfoam.com                      |
|    \\/     M anipulation  |                                                 |
\*---------------------------------------------------------------------------*/
FoamFile
{
    version     2.0;
    format      ascii;
    arch        "LSB;label=32;scalar=64";
    class       volScalarField;
    location    "4.5";
    object      T;
}
// * * * * * * * * * * * * * * * * * * * * * * * * * * * * * * * * * * * * * //

dimensions      [0 0 0 1 0 0 0];

internalField   nonuniform List<scalar> 
1000
(
0
0
0
0
0
0
0
0
0
0
0
0
0
0
0
0
0
0
0
0
0
0
0
0
0
0
0
0
0
0
0
0
0
0
0
0
0
0
0
0
0
0
0
0
0
0
0
0
0
0
0
0
0
0
0
0
0
0
0
0
0
0
0
0
0
0
0
0
0
0
0
0
0
0
0
0
0
0
0
0
0
0
0
0
0
0
0
0
0
0
0
0
0
0
0
0
0
0
0
0
0
0
0
0
0
0
0
0
0
0
0
0
0
0
0
0
0
0
0
0
0
0
0
0
0
0
0
0
0
0
0
0
0
0
0
0
0
0
0
0
0
0
0
0
0
0
0
0
0
0
0
0
0
0
0
0
0
0
0
0
0
0
0
0
0
0
0
0
0
0
0
0
0
0
0
0
0
0
0
0
0
0
0
0
0
0
0
0
0
0
0
0
0
0
0
0
0
0
0
0
0
0
0
0
0
0
0
0
0
0
0
0
0
0
0
0
0
0
0
0
0
0
0
0
0
2.81617e-322
2.21045e-320
1.50499e-318
1.01771e-316
6.85217e-315
4.59371e-313
3.06636e-311
2.03796e-309
1.34857e-307
8.88485e-306
5.82791e-304
3.80587e-302
2.47436e-300
1.60151e-298
1.03193e-296
6.61922e-295
4.22664e-293
2.6866e-291
1.6999e-289
1.07064e-287
6.71201e-286
4.18835e-284
2.60138e-282
1.60814e-280
9.89446e-279
6.05898e-277
3.69262e-275
2.23969e-273
1.3519e-271
8.12079e-270
4.8544e-268
2.88765e-266
1.70929e-264
1.00678e-262
5.90057e-261
3.44096e-259
1.99654e-257
1.1526e-255
6.62022e-254
3.78305e-252
2.15069e-250
1.21638e-248
6.84381e-247
3.8305e-245
2.13269e-243
1.18114e-241
6.50678e-240
3.56537e-238
1.94314e-236
1.0533e-234
5.67853e-233
3.04466e-231
1.62349e-229
8.60895e-228
4.53972e-226
2.38051e-224
1.24125e-222
6.43552e-221
3.3176e-219
1.70047e-217
8.6656e-216
4.39037e-214
2.21136e-212
1.10728e-210
5.51159e-209
2.72712e-207
1.34128e-205
6.55709e-204
3.18609e-202
1.53866e-200
7.38498e-199
3.52256e-197
1.66976e-195
7.86532e-194
3.68152e-192
1.71225e-190
7.91262e-189
3.63299e-187
1.65722e-185
7.51016e-184
3.38104e-182
1.51204e-180
6.71691e-179
2.96378e-177
1.29889e-175
5.65361e-174
2.44392e-172
1.04914e-170
4.4724e-169
1.89316e-167
7.95703e-166
3.32053e-164
1.37573e-162
5.65855e-161
2.31046e-159
9.36454e-158
3.76743e-156
1.50436e-154
5.96176e-153
2.34473e-151
9.15114e-150
3.54404e-148
1.36186e-146
5.19218e-145
1.96391e-143
7.36919e-142
2.74293e-140
1.01269e-138
3.70827e-137
1.34671e-135
4.85006e-134
1.73206e-132
6.13321e-131
2.15322e-129
7.49428e-128
2.5857e-126
8.843e-125
2.99749e-123
1.00697e-121
3.35226e-120
1.10582e-118
3.61426e-117
1.17031e-115
3.75399e-114
1.19276e-112
3.75351e-111
1.16979e-109
3.61008e-108
1.10312e-106
3.33722e-105
9.99426e-104
2.96262e-102
8.6919e-101
2.52358e-99
7.24989e-98
2.06068e-96
5.79427e-95
1.61155e-93
4.43298e-92
1.20585e-90
3.24327e-89
8.62394e-88
2.26674e-86
5.88858e-85
1.51172e-83
3.83457e-82
9.60914e-81
2.37852e-79
5.81452e-78
1.40358e-76
3.34504e-75
7.86928e-74
1.8271e-72
4.18603e-71
9.46186e-70
2.10961e-68
4.63869e-67
1.0057e-65
2.14946e-64
4.5278e-63
9.39829e-62
1.92183e-60
3.87064e-59
7.67629e-58
1.49869e-56
2.87974e-55
5.44454e-54
1.01255e-52
1.85184e-51
3.32956e-50
5.88359e-49
1.02149e-47
1.74188e-46
2.91644e-45
4.79278e-44
7.72796e-43
1.22215e-41
1.89494e-40
2.87943e-39
4.28619e-38
6.24744e-37
8.9125e-36
1.24382e-34
1.69731e-33
2.26353e-32
2.94845e-31
3.7492e-30
4.65116e-29
5.62588e-28
6.63042e-27
7.60874e-26
8.49551e-25
9.22226e-24
9.72534e-23
9.9545e-22
9.8807e-21
9.50147e-20
8.84271e-19
7.95606e-18
6.91236e-17
5.79204e-16
4.67453e-15
3.62851e-14
2.70483e-13
1.93311e-12
1.32223e-11
8.63892e-11
5.38028e-10
3.18684e-09
1.79081e-08
9.52133e-08
4.77549e-07
2.25214e-06
9.9511e-06
4.10326e-05
0.000157209
0.000556965
0.00181509
0.00541009
0.0146585
0.0358756
0.0788188
0.154602
0.269775
0.418746
0.581254
0.730225
0.845398
0.921181
0.964124
0.985341
0.99459
0.998185
0.999443
0.999843
0.999959
0.99999
0.999998
1
1
1
1
1
1
1
1
1
1
1
1
1
1
1
1
1
1
1
1
1
1
1
1
1
1
1
1
1
1
1
1
1
1
1
1
1
1
1
1
1
1
1
1
1
1
1
1
1
1
1
1
1
1
1
1
1
1
1
1
1
1
1
1
1
1
1
1
1
1
1
1
1
1
0.999998
0.99999
0.999959
0.999843
0.999443
0.998185
0.99459
0.985341
0.964124
0.921181
0.845398
0.730225
0.581254
0.418746
0.269775
0.154602
0.0788188
0.0358756
0.0146585
0.00541009
0.00181509
0.000556965
0.000157209
4.10326e-05
9.9511e-06
2.25214e-06
4.77549e-07
9.52133e-08
1.79081e-08
3.18684e-09
5.38028e-10
8.63892e-11
1.32223e-11
1.93311e-12
2.70483e-13
3.62851e-14
4.67453e-15
5.79204e-16
6.91236e-17
7.95606e-18
8.84271e-19
9.50147e-20
9.8807e-21
9.9545e-22
9.72534e-23
9.22226e-24
8.49551e-25
7.60874e-26
6.63042e-27
5.62588e-28
4.65116e-29
3.7492e-30
2.94845e-31
2.26353e-32
1.69731e-33
1.24382e-34
8.9125e-36
6.24744e-37
4.28619e-38
2.87943e-39
1.89494e-40
1.22215e-41
7.72796e-43
4.79278e-44
2.91644e-45
1.74188e-46
1.02149e-47
5.88359e-49
3.32956e-50
1.85184e-51
1.01255e-52
5.44454e-54
2.87974e-55
1.49869e-56
7.67629e-58
3.87064e-59
1.92183e-60
9.39829e-62
4.5278e-63
2.14946e-64
1.0057e-65
4.63869e-67
2.10961e-68
9.46186e-70
4.18603e-71
1.8271e-72
7.86928e-74
3.34504e-75
1.40358e-76
5.81452e-78
2.37852e-79
9.60914e-81
3.83457e-82
1.51172e-83
5.88858e-85
2.26674e-86
8.62394e-88
3.24327e-89
1.20585e-90
4.43298e-92
1.61155e-93
5.79427e-95
2.06068e-96
7.24989e-98
2.52358e-99
8.6919e-101
2.96262e-102
9.99426e-104
3.33722e-105
1.10312e-106
3.61008e-108
1.16979e-109
3.75351e-111
1.19276e-112
3.75399e-114
1.17031e-115
3.61426e-117
1.10582e-118
3.35226e-120
1.00697e-121
2.99749e-123
8.843e-125
2.5857e-126
7.49428e-128
2.15322e-129
6.13321e-131
1.73206e-132
4.85006e-134
1.34671e-135
3.70827e-137
1.01269e-138
2.74293e-140
7.36919e-142
1.96391e-143
5.19218e-145
1.36186e-146
3.54404e-148
9.15114e-150
2.34473e-151
5.96176e-153
1.50436e-154
3.76743e-156
9.36454e-158
2.31046e-159
5.65855e-161
1.37573e-162
3.32053e-164
7.95703e-166
1.89316e-167
4.4724e-169
1.04914e-170
2.44392e-172
5.65361e-174
1.29889e-175
2.96378e-177
6.71691e-179
1.51204e-180
3.38104e-182
7.51016e-184
1.65722e-185
3.63299e-187
7.91262e-189
1.71225e-190
3.68152e-192
7.86532e-194
1.66976e-195
3.52256e-197
7.38498e-199
1.53866e-200
3.18609e-202
6.55709e-204
1.34128e-205
2.72712e-207
5.51159e-209
1.10728e-210
2.21136e-212
4.39037e-214
8.6656e-216
1.70047e-217
3.3176e-219
6.43552e-221
1.24125e-222
2.38051e-224
4.53972e-226
8.60895e-228
1.62349e-229
3.04466e-231
5.67853e-233
1.0533e-234
1.94314e-236
3.56537e-238
6.50678e-240
1.18114e-241
2.13269e-243
3.8305e-245
6.84381e-247
1.21638e-248
2.15069e-250
3.78305e-252
6.62022e-254
1.1526e-255
1.99654e-257
3.44096e-259
5.90057e-261
1.00678e-262
1.70929e-264
2.88765e-266
4.8544e-268
8.12079e-270
1.3519e-271
2.23969e-273
3.69262e-275
6.05898e-277
9.89446e-279
1.60814e-280
2.60138e-282
4.18835e-284
6.71201e-286
1.07064e-287
1.6999e-289
2.6866e-291
4.22664e-293
6.61922e-295
1.03193e-296
1.60151e-298
2.47436e-300
3.80587e-302
5.82791e-304
8.88485e-306
1.34857e-307
2.03796e-309
3.06636e-311
4.59371e-313
6.85217e-315
1.01771e-316
1.50499e-318
2.21045e-320
2.81617e-322
0
0
0
0
0
0
0
0
0
0
0
0
0
0
0
0
0
0
0
0
0
0
0
0
0
0
0
0
0
0
0
0
0
0
0
0
0
0
0
0
0
0
0
0
0
0
0
0
0
0
0
0
0
0
0
0
0
0
0
0
0
0
0
0
0
0
0
0
0
0
0
0
0
0
0
0
0
0
0
0
0
0
0
0
0
0
0
0
0
0
0
0
0
0
0
0
0
0
0
0
0
0
0
0
0
0
0
0
0
0
0
0
0
0
0
0
0
0
0
0
0
0
0
0
0
0
0
0
0
0
0
0
0
0
0
0
0
0
0
0
0
0
0
0
0
0
0
0
0
0
0
0
0
0
0
0
0
0
0
0
0
0
0
0
0
0
0
0
0
0
0
0
0
0
0
0
0
0
0
0
0
0
0
0
0
0
0
0
0
0
0
0
0
0
0
0
0
0
0
0
0
0
0
0
0
0
0
0
0
0
0
0
0
0
0
0
0
0
0
0
0
0
0
0
0
)
;

boundaryField
{
    sides
    {
        type            zeroGradient;
    }
    empty
    {
        type            empty;
    }
}


// ************************************************************************* //
