/*--------------------------------*- C++ -*----------------------------------*\
| =========                 |                                                 |
| \\      /  F ield         | OpenFOAM: The Open Source CFD Toolbox           |
|  \\    /   O peration     | Version:  2312                                  |
|   \\  /    A nd           | Website:  www.openfoam.com                      |
|    \\/     M anipulation  |                                                 |
\*---------------------------------------------------------------------------*/
FoamFile
{
    version     2.0;
    format      ascii;
    arch        "LSB;label=32;scalar=64";
    class       volScalarField;
    location    "0.5";
    object      T;
}
// * * * * * * * * * * * * * * * * * * * * * * * * * * * * * * * * * * * * * //

dimensions      [0 0 0 1 0 0 0];

internalField   nonuniform List<scalar> 
1000
(
0
0
0
0
0
0
0
0
0
0
0
0
0
0
0
0
0
0
0
0
0
0
0
0
0
0
0
0
0
0
0
0
0
0
0
0
0
0
0
0
0
0
0
0
0
0
0
0
0
0
0
0
0
0
0
0
0
0
0
0
0
0
0
0
0
0
0
0
0
0
0
0
0
0
0
0
0
0
0
0
0
0
0
0
0
0
0
0
0
0
0
0
0
0
0
0
0
0
0
0
0
0
0
0
0
0
0
0
0
0
0
0
0
0
0
0
0
0
0
0
0
0
0
0
0
0
0
0
0
0
0
0
0
0
0
0
0
0
0
0
0
0
0
0
0
0
0
0
0
0
0
0
0
0
0
0
0
0
0
0
0
0
0
0
0
0
0
0
0
0
0
0
0
-4.94066e-324
2.96439e-323
-4.94066e-324
2.96439e-323
-4.94066e-324
2.96439e-323
-4.94066e-324
2.96439e-323
-4.94066e-324
2.96439e-323
-4.94066e-324
2.96439e-323
-4.94066e-324
2.96439e-323
-4.94066e-324
2.02567e-322
-2.37646e-321
3.08939e-320
-3.97342e-319
5.11198e-318
-6.57656e-317
8.46077e-316
-1.08848e-314
1.40034e-313
-1.80154e-312
2.31769e-311
-2.98171e-310
3.83599e-309
-4.93502e-308
6.34892e-307
-8.16791e-306
1.05081e-304
-1.35187e-303
1.73918e-302
-2.23746e-301
2.87851e-300
-3.70321e-299
4.7642e-298
-6.12916e-297
7.88519e-296
-1.01443e-294
1.30507e-293
-1.67898e-292
2.16002e-291
-2.77887e-290
3.57503e-289
-4.59929e-288
5.91701e-287
-7.61225e-286
9.7932e-285
-1.2599e-283
1.62087e-282
-2.08525e-281
2.68268e-280
-3.45128e-279
4.44009e-278
-5.7122e-277
7.34877e-276
-9.45422e-275
1.21629e-273
-1.56476e-272
2.01307e-271
-2.58983e-270
3.33182e-269
-4.2864e-268
5.51448e-267
-7.0944e-266
9.12697e-265
-1.17419e-263
1.5106e-262
-1.94339e-261
2.50018e-260
-3.2165e-259
4.13804e-258
-5.3236e-257
6.84883e-256
-8.81106e-255
1.13355e-253
-1.45831e-252
1.87612e-251
-2.41364e-250
3.10516e-249
-3.9948e-248
5.13933e-247
-6.61177e-246
8.50607e-245
-1.09431e-243
1.40783e-242
-1.81118e-241
2.3301e-240
-2.99768e-239
3.85653e-238
-4.96144e-237
6.38291e-236
-8.21164e-235
1.05643e-233
-1.3591e-232
1.74849e-231
-2.24944e-230
2.89392e-229
-3.72304e-228
4.78971e-227
-6.16198e-226
7.92741e-225
-1.01986e-223
1.31206e-222
-1.68797e-221
2.17158e-220
-2.79375e-219
3.59417e-218
-4.62392e-217
5.94869e-216
-7.65301e-215
9.84563e-214
-1.26664e-212
1.62954e-211
-2.09642e-210
2.69705e-209
-3.46976e-208
4.46387e-207
-5.74278e-206
7.38811e-205
-9.50484e-204
1.2228e-202
-1.57314e-201
2.02385e-200
-2.60369e-199
3.34966e-198
-4.30935e-197
5.544e-196
-7.13238e-195
9.17584e-194
-1.18048e-192
1.51869e-191
-1.9538e-190
2.51357e-189
-3.23372e-188
4.16019e-187
-5.3521e-186
6.8855e-185
-8.85823e-184
1.13962e-182
-1.46612e-181
1.88617e-180
-2.42657e-179
3.12179e-178
-4.01619e-177
5.16685e-176
-6.64717e-175
8.55161e-174
-1.10017e-172
1.41537e-171
-1.82088e-170
2.34257e-169
-3.01373e-168
3.87718e-167
-4.988e-166
6.41709e-165
-8.25561e-164
1.06209e-162
-1.36638e-161
1.75785e-160
-2.26149e-159
2.90941e-158
-3.74297e-157
4.81535e-156
-6.19497e-155
7.96985e-154
-1.02533e-152
1.31909e-151
-1.69701e-150
2.18321e-149
-2.80871e-148
3.61341e-147
-4.64867e-146
5.98054e-145
-7.69399e-144
9.89835e-143
-1.27343e-141
1.63827e-140
-2.10764e-139
2.71149e-138
-3.48834e-137
4.48777e-136
-5.77353e-135
7.42767e-134
-9.55573e-133
1.22935e-131
-1.58156e-130
2.03469e-129
-2.61763e-128
3.3676e-127
-4.33243e-126
5.57369e-125
-7.17057e-124
9.22497e-123
-1.1868e-121
1.52682e-120
-1.96426e-119
2.52703e-118
-3.25103e-117
4.18247e-116
-5.38076e-115
6.92237e-114
-8.90566e-113
1.14572e-111
-1.47397e-110
1.89627e-109
-2.43956e-108
3.1385e-107
-4.0377e-106
5.19451e-105
-6.68276e-104
8.5974e-103
-1.10606e-101
1.42295e-100
-1.83063e-99
2.35512e-98
-3.02987e-97
3.89794e-96
-5.01471e-95
6.45145e-94
-8.29981e-93
1.06777e-91
-1.3737e-90
1.76727e-89
-2.2736e-88
2.92499e-87
-3.76301e-86
4.84113e-85
-6.22814e-84
8.01253e-83
-1.03081e-81
1.32615e-80
-1.70609e-79
2.1949e-78
-2.82375e-77
3.63276e-76
-4.67356e-75
6.01256e-74
-7.73518e-73
9.95135e-72
-1.28024e-70
1.64704e-69
-2.11892e-68
2.72601e-67
-3.50702e-66
4.51179e-65
-5.80444e-64
7.46744e-63
-9.60689e-62
1.23593e-60
-1.59003e-59
2.04558e-58
-2.63165e-57
3.38563e-56
-4.35562e-55
5.60353e-54
-7.20896e-53
9.27436e-52
-1.19315e-50
1.53499e-49
-1.97478e-48
2.54056e-47
-3.26844e-46
4.20486e-45
-5.40957e-44
6.95943e-43
-8.95334e-42
1.15185e-40
-1.48186e-39
1.90642e-38
-2.45262e-37
3.15531e-36
-4.05931e-35
5.22232e-34
-1.21039e-31
6.64184e-28
7.65493e-26
4.34675e-24
1.6215e-22
4.46909e-21
9.70395e-20
1.72856e-18
2.59714e-17
3.3587e-16
3.79638e-15
3.79576e-14
3.38938e-13
2.72414e-12
1.98348e-11
1.31539e-10
7.9814e-10
4.44798e-09
2.28411e-08
1.08377e-07
4.76246e-07
1.942e-06
7.36022e-06
2.59611e-05
8.53088e-05
0.000261355
0.000746883
0.00199145
0.00495433
0.0114973
0.0248764
0.0501469
0.0940902
0.164125
0.265799
0.399103
0.554952
0.714187
0.851367
0.9443
0.987601
0.99876
0.99996
1
1
1
1
1
1
1
1
1
1
1
1
1
1
1
1
1
1
1
1
1
1
1
1
1
1
1
1
1
1
1
1
1
1
1
1
1
1
1
1
1
1
1
1
1
1
1
1
1
1
1
1
1
1
1
1
1
1
1
1
1
1
1
1
1
1
1
1
1
1
1
1
1
1
1
1
1
1
0.999998
0.999993
0.999974
0.999914
0.999738
0.99925
0.998002
0.995032
0.988475
0.975073
0.949767
0.905776
0.835687
0.733965
0.600633
0.444791
0.285603
0.148494
0.0556342
0.0123796
0.00123741
3.99098e-05
3.00568e-07
4.01699e-10
7.69346e-14
6.30147e-18
5.17207e-22
4.27307e-26
3.55899e-30
2.98541e-34
2.51634e-38
2.12581e-42
1.79633e-46
1.51634e-50
1.27793e-54
1.07525e-58
9.03494e-63
7.58475e-67
6.36414e-71
5.33907e-75
4.47936e-79
3.75867e-83
3.15448e-87
2.64777e-91
2.2226e-95
1.86569e-99
1.56599e-103
1.31431e-107
1.10294e-111
9.25448e-116
7.7643e-120
6.51339e-124
5.4635e-128
4.58246e-132
3.8432e-136
3.22297e-140
2.70264e-144
2.26614e-148
1.9e-152
1.5929e-156
1.33532e-160
1.1193e-164
9.38151e-169
7.8625e-173
6.58887e-177
5.52107e-181
4.62592e-185
3.87555e-189
3.24662e-193
2.7195e-197
2.27777e-201
1.90761e-205
1.59746e-209
1.33762e-213
1.11994e-217
9.37596e-222
7.84871e-226
6.56963e-230
5.49849e-234
4.60158e-238
3.85061e-242
3.22191e-246
2.69561e-250
2.25507e-254
1.88635e-258
1.57778e-262
1.31956e-266
1.10349e-270
9.2272e-275
7.71488e-279
6.4498e-283
5.39165e-287
4.50666e-291
3.76656e-295
3.1477e-299
2.63025e-303
2.19765e-307
1.83601e-311
1.53373e-315
1.28087e-319
0
0
0
0
0
0
0
0
0
0
0
0
0
0
0
0
0
0
0
0
0
0
0
0
0
0
0
0
0
0
0
0
0
0
0
0
0
0
0
0
0
0
0
0
0
0
0
0
0
0
0
0
0
0
0
0
0
0
0
0
0
0
0
0
0
0
0
0
0
0
0
0
0
0
0
0
0
0
0
0
0
0
0
0
0
0
0
0
0
0
0
0
0
0
0
0
0
0
0
0
0
0
0
0
0
0
0
0
0
0
0
0
0
0
0
0
0
0
0
0
0
0
0
0
0
0
0
0
0
0
0
0
0
0
0
0
0
0
0
0
0
0
0
0
0
0
0
0
0
0
0
0
0
0
0
0
0
0
0
0
0
0
0
0
0
0
0
0
0
0
0
0
0
0
0
0
0
0
0
0
0
0
0
0
0
0
0
0
0
0
0
0
0
0
0
0
0
0
0
0
0
0
0
0
0
0
0
0
0
0
0
0
0
0
0
0
0
0
0
0
0
0
0
0
0
0
0
0
0
0
0
0
0
0
0
0
0
0
0
0
0
0
0
0
0
0
0
0
0
0
0
0
0
0
0
0
0
0
0
0
0
0
0
0
0
0
0
0
0
0
0
0
0
0
0
0
0
0
0
0
0
0
0
0
0
0
0
0
0
0
0
0
0
0
0
0
0
0
0
0
0
0
0
0
0
0
0
0
0
0
0
0
0
0
0
0
0
0
0
0
0
0
0
0
0
0
0
0
0
0
)
;

boundaryField
{
    sides
    {
        type            zeroGradient;
    }
    empty
    {
        type            empty;
    }
}


// ************************************************************************* //
