/*--------------------------------*- C++ -*----------------------------------*\
| =========                 |                                                 |
| \\      /  F ield         | OpenFOAM: The Open Source CFD Toolbox           |
|  \\    /   O peration     | Version:  2312                                  |
|   \\  /    A nd           | Website:  www.openfoam.com                      |
|    \\/     M anipulation  |                                                 |
\*---------------------------------------------------------------------------*/
FoamFile
{
    version     2.0;
    format      ascii;
    arch        "LSB;label=32;scalar=64";
    class       volScalarField;
    location    "1.7";
    object      T;
}
// * * * * * * * * * * * * * * * * * * * * * * * * * * * * * * * * * * * * * //

dimensions      [0 0 0 1 0 0 0];

internalField   nonuniform List<scalar> 
1000
(
0
0
0
0
0
0
0
0
0
0
0
0
0
0
0
0
0
0
0
0
0
0
0
0
0
0
0
0
0
0
0
0
0
0
0
0
0
0
0
0
0
0
0
0
0
0
0
0
0
0
0
0
0
0
0
0
0
0
0
0
0
0
0
0
0
0
0
0
0
0
0
0
0
0
0
0
0
0
0
0
0
0
0
0
0
0
0
0
0
0
0
0
0
0
0
0
0
0
0
0
0
0
0
0
0
0
0
0
0
0
0
0
0
0
0
0
0
0
0
0
0
0
0
0
0
0
0
0
0
0
0
0
0
0
0
0
0
0
0
0
0
0
0
0
0
0
0
0
0
0
0
0
0
0
0
0
0
0
0
0
0
0
0
0
0
0
0
0
0
0
0
0
0
-4.94066e-324
2.96439e-323
-4.94066e-324
2.96439e-323
-4.94066e-324
2.96439e-323
-4.94066e-324
2.96439e-323
-4.94066e-324
2.96439e-323
-4.94066e-324
2.96439e-323
-4.94066e-324
2.96439e-323
-4.94066e-324
2.96439e-323
-4.94066e-324
2.96439e-323
-4.94066e-324
2.96439e-323
-4.94066e-324
2.96439e-323
-4.94066e-324
2.96439e-323
-4.94066e-324
2.96439e-323
-4.94066e-324
2.96439e-323
-4.94066e-324
2.96439e-323
-4.94066e-324
2.96439e-323
-4.94066e-324
2.96439e-323
-4.94066e-324
2.96439e-323
-4.94066e-324
2.96439e-323
-4.94066e-324
2.96439e-323
-4.94066e-324
2.96439e-323
-4.94066e-324
2.96439e-323
-4.94066e-324
2.96439e-323
-4.94066e-324
2.96439e-323
-9.38725e-323
1.43279e-321
-1.82804e-320
2.35348e-319
-3.02759e-318
3.89501e-317
-5.01097e-316
6.4466e-315
-8.29362e-314
1.06697e-312
-1.37267e-311
1.76594e-310
-2.27189e-309
2.92281e-308
-3.76019e-307
4.83752e-306
-6.22346e-305
8.00656e-304
-1.03004e-302
1.32516e-301
-1.70481e-300
2.19326e-299
-2.82163e-298
3.63005e-297
-4.67005e-296
6.00808e-295
-7.72937e-294
9.94393e-293
-1.27928e-291
1.64581e-290
-2.11733e-289
2.72397e-288
-3.50439e-287
4.50843e-286
-5.80009e-285
7.46186e-284
-9.59971e-283
1.23501e-281
-1.58884e-280
2.04405e-279
-2.62969e-278
3.38309e-277
-4.35238e-276
5.59932e-275
-7.20359e-274
9.2674e-273
-1.19226e-271
1.53384e-270
-1.9733e-269
2.53865e-268
-3.266e-267
4.2017e-266
-5.40554e-265
6.95421e-264
-8.94667e-263
1.15099e-261
-1.48076e-260
1.90499e-259
-2.45079e-258
3.15294e-257
-4.05628e-256
5.21842e-255
-6.71351e-254
8.63698e-253
-1.11115e-251
1.4295e-250
-1.83905e-249
2.36596e-248
-3.0438e-247
3.91588e-246
-5.03777e-245
6.48115e-244
-8.33799e-243
1.07269e-241
-1.38001e-240
1.7754e-239
-2.28405e-238
2.93846e-237
-3.78032e-236
4.86343e-235
-6.25678e-234
8.04942e-233
-1.03556e-231
1.33225e-230
-1.71394e-229
2.205e-228
-2.83674e-227
3.64948e-226
-4.69507e-225
6.04023e-224
-7.77078e-223
9.99715e-222
-1.28614e-220
1.65462e-219
-2.12868e-218
2.73855e-217
-3.52316e-216
4.53255e-215
-5.83116e-214
7.5018e-213
-9.65111e-212
1.24162e-210
-1.59735e-209
2.05499e-208
-2.64376e-207
3.40121e-206
-4.37567e-205
5.62931e-204
-7.24214e-203
9.31704e-202
-1.19864e-200
1.54206e-199
-1.98386e-198
2.55225e-197
-3.28348e-196
4.22421e-195
-5.43447e-194
6.99146e-193
-8.99455e-192
1.15715e-190
-1.48868e-189
1.9152e-188
-2.4639e-187
3.16983e-186
-4.07799e-185
5.24636e-184
-6.74946e-183
8.68322e-182
-1.1171e-180
1.43715e-179
-1.8489e-178
2.37862e-177
-3.06011e-176
3.93684e-175
-5.06476e-174
6.51584e-173
-8.38265e-172
1.07843e-170
-1.38741e-169
1.78491e-168
-2.29629e-167
2.95419e-166
-3.80057e-165
4.88945e-164
-6.2903e-163
8.0925e-162
-1.0411e-160
1.33938e-159
-1.72312e-158
2.2168e-157
-2.85193e-156
3.66902e-155
-4.72021e-154
6.07257e-153
-7.81239e-152
1.00507e-150
-1.29302e-149
1.66348e-148
-2.14007e-147
2.75321e-146
-3.54202e-145
4.55682e-144
-5.86238e-143
7.54197e-142
-9.70278e-141
1.24827e-139
-1.6059e-138
2.066e-137
-2.65792e-136
3.41942e-135
-4.3991e-134
5.65946e-133
-7.28091e-132
9.36693e-131
-1.20506e-129
1.55032e-128
-1.99448e-127
2.56592e-126
-3.30106e-125
4.24683e-124
-5.46356e-123
7.0289e-122
-9.0427e-121
1.16335e-119
-1.49665e-118
1.92545e-117
-2.4771e-116
3.1868e-115
-4.09983e-114
5.27445e-113
-6.7856e-112
8.7297e-111
-1.12308e-109
1.44485e-108
-1.8588e-107
2.39136e-106
-3.07649e-105
3.95792e-104
-5.09188e-103
6.55073e-102
-8.42753e-101
1.08421e-99
-1.39484e-98
1.79446e-97
-2.30858e-96
2.97e-95
-3.82092e-94
4.91563e-93
-6.32398e-92
5.39133e-91
1.7079e-90
-4.01632e-89
7.94054e-89
1.72096e-87
-1.94873e-86
-5.31404e-86
1.36368e-84
1.30774e-84
-6.64369e-83
-2.58455e-83
3.29368e-81
4.04559e-82
-1.6721e-79
-5.67914e-80
8.52692e-78
6.5993e-78
-4.13819e-76
-5.90204e-76
1.42824e-74
4.96333e-74
-3.26185e-73
-3.41928e-72
2.84103e-72
2.03076e-70
2.15254e-70
-5.22354e-69
-2.82867e-68
4.32162e-68
1.8535e-66
2.39187e-66
-3.0428e-65
-3.02078e-64
-1.04768e-64
9.29915e-63
4.63408e-62
-2.37609e-62
-1.99988e-60
-7.52539e-60
6.38046e-60
3.39326e-58
1.27524e-57
-6.88776e-58
-4.56826e-56
-7.23296e-55
-9.97074e-54
-1.29702e-52
-1.53069e-51
-3.9527e-51
1.91023e-51
1.04805e-49
1.32506e-48
1.44623e-47
1.49341e-46
1.48316e-45
1.42216e-44
1.31847e-43
1.18284e-42
1.02761e-41
8.65094e-41
7.06143e-40
5.59201e-39
4.2986e-38
3.20917e-37
2.32798e-36
1.64167e-35
1.12592e-34
7.51311e-34
4.87977e-33
3.08609e-32
1.90109e-31
1.14112e-30
6.67621e-30
3.80835e-29
2.11873e-28
1.14993e-27
6.0902e-27
3.14826e-26
1.58887e-25
7.83041e-25
3.76922e-24
1.77246e-23
8.14408e-23
3.65702e-22
1.60512e-21
6.88731e-21
2.88948e-20
1.18544e-19
4.75651e-19
1.86679e-18
7.16727e-18
2.6922e-17
9.89458e-17
3.55847e-16
1.25239e-15
4.31376e-15
1.45426e-14
4.79864e-14
1.54991e-13
4.90032e-13
1.51664e-12
4.59505e-12
1.36287e-11
3.95708e-11
1.12474e-10
3.1295e-10
8.52389e-10
2.27261e-09
5.93086e-09
1.51493e-08
3.78727e-08
9.2658e-08
2.21833e-07
5.19658e-07
1.19099e-06
2.67022e-06
5.85564e-06
1.25583e-05
2.63354e-05
5.39924e-05
0.000108199
0.000211895
0.000405441
0.000757773
0.00138306
0.0024644
0.00428567
0.00727147
0.0120329
0.0194136
0.0305252
0.0467573
0.0697417
0.10125
0.14301
0.196429
0.262256
0.340217
0.428701
0.5246
0.623394
0.719536
0.807146
0.880892
0.936898
0.973546
0.992378
0.998794
0.999922
0.999999
1
1
1
1
1
1
1
1
1
1
1
1
1
1
1
1
1
1
1
1
1
1
1
1
1
1
1
1
1
1
1
1
1
1
1
1
1
1
1
1
1
1
1
1
1
1
1
1
1
1
1
1
1
1
1
1
1
1
1
1
1
1
1
0.999999
0.999999
0.999997
0.999994
0.999987
0.999974
0.999946
0.999892
0.999788
0.999594
0.999241
0.998615
0.997532
0.995709
0.99272
0.987953
0.980566
0.969445
0.953201
0.930202
0.898675
0.856896
0.803457
0.737611
0.659634
0.571139
0.475237
0.376449
0.280322
0.192736
0.119017
0.0630411
0.0264203
0.00760876
0.00120336
7.74381e-05
1.45926e-06
5.94184e-09
4.06729e-12
4.13102e-16
3.6137e-20
3.18393e-24
2.79802e-28
2.44372e-32
2.12025e-36
1.82949e-40
1.57253e-44
1.34874e-48
1.15591e-52
9.90886e-57
8.50086e-61
7.29994e-65
6.27415e-69
5.39597e-73
4.64244e-77
3.99466e-81
3.43713e-85
2.95701e-89
2.54352e-93
2.18751e-97
1.88111e-101
1.61751e-105
1.3908e-109
1.19587e-113
1.02828e-117
8.84185e-122
7.603e-126
6.53778e-130
5.62182e-134
4.83415e-138
4.15679e-142
3.57429e-146
3.07337e-150
2.6426e-154
2.27218e-158
1.95365e-162
1.67975e-166
1.44423e-170
1.24172e-174
1.0676e-178
9.17878e-183
7.89146e-187
6.7846e-191
5.83292e-195
5.01466e-199
4.31114e-203
3.70628e-207
3.18623e-211
2.73913e-215
2.35473e-219
2.02426e-223
1.74014e-227
1.49589e-231
1.2859e-235
1.10538e-239
9.50195e-244
8.16785e-248
7.02099e-252
6.03511e-256
5.18761e-260
4.45908e-264
3.83283e-268
3.29451e-272
2.83176e-276
2.434e-280
2.09209e-284
1.79819e-288
1.54557e-292
1.32843e-296
1.14179e-300
9.81359e-305
8.43466e-309
7.24943e-313
6.2307e-317
5.33591e-321
0
0
0
0
0
0
0
0
0
0
0
0
0
0
0
0
0
0
0
0
0
0
0
0
0
0
0
0
0
0
0
0
0
0
0
0
0
0
0
0
0
0
0
0
0
0
0
0
0
0
0
0
0
0
0
0
0
0
0
0
0
0
0
0
0
0
0
0
0
0
0
0
0
0
0
0
0
0
0
0
0
0
0
0
0
0
0
0
0
0
0
0
0
0
0
0
0
0
0
0
0
0
0
0
0
0
0
0
0
0
0
0
0
0
0
0
0
0
0
0
0
0
0
0
0
0
0
0
0
0
0
0
0
0
0
0
0
0
0
0
0
0
0
0
0
0
0
0
0
0
0
0
0
0
0
0
0
0
0
0
0
0
0
0
0
0
0
0
0
0
0
0
0
0
0
0
0
0
0
0
0
0
0
0
0
0
0
0
0
0
0
0
0
0
0
0
0
0
0
0
0
0
0
0
0
0
0
0
0
0
0
0
0
0
0
0
0
0
0
0
0
0
0
0
0
0
0
0
0
0
0
0
0
0
0
0
0
0
0
0
0
0
)
;

boundaryField
{
    sides
    {
        type            zeroGradient;
    }
    empty
    {
        type            empty;
    }
}


// ************************************************************************* //
