/*--------------------------------*- C++ -*----------------------------------*\
| =========                 |                                                 |
| \\      /  F ield         | OpenFOAM: The Open Source CFD Toolbox           |
|  \\    /   O peration     | Version:  2312                                  |
|   \\  /    A nd           | Website:  www.openfoam.com                      |
|    \\/     M anipulation  |                                                 |
\*---------------------------------------------------------------------------*/
FoamFile
{
    version     2.0;
    format      ascii;
    arch        "LSB;label=32;scalar=64";
    class       volScalarField;
    location    "4";
    object      T;
}
// * * * * * * * * * * * * * * * * * * * * * * * * * * * * * * * * * * * * * //

dimensions      [0 0 0 1 0 0 0];

internalField   nonuniform List<scalar> 
1000
(
0
0
0
0
0
0
0
0
0
0
0
0
0
0
0
0
0
0
0
0
0
0
0
0
0
0
0
0
0
0
0
0
0
0
0
0
0
0
0
0
0
0
0
0
0
0
0
0
0
0
0
0
0
0
0
0
0
0
0
0
0
0
0
0
0
0
0
0
0
0
0
0
0
0
0
0
0
0
0
0
0
0
0
0
0
0
0
0
0
0
0
0
0
0
0
0
0
0
0
0
0
0
0
0
0
0
0
0
0
0
0
0
0
0
0
0
0
0
0
0
0
0
0
0
0
0
0
0
0
0
0
0
0
0
0
0
0
0
0
0
0
0
0
0
0
0
0
0
0
0
0
0
0
0
0
0
0
0
0
0
0
0
0
0
0
0
0
0
0
0
0
0
0
0
0
0
0
0
0
0
0
0
0
0
0
0
0
0
0
0
0
0
0
0
0
0
0
0
0
0
0
0
0
0
0
0
0
0
0
0
0
0
0
0
0
0
0
0
0
0
0
0
0
0
0
0
0
0
0
0
0
6.57107e-322
5.39421e-320
3.99741e-318
2.94587e-316
2.16141e-314
1.57888e-312
1.14827e-310
8.31389e-309
5.99276e-307
4.30031e-305
3.07195e-303
2.18454e-301
1.54641e-299
1.08969e-297
7.64333e-296
5.33645e-294
3.70854e-292
2.56522e-290
1.76606e-288
1.21014e-286
8.25284e-285
5.60144e-283
3.78367e-281
2.5435e-279
1.70155e-277
1.13277e-275
7.50429e-274
4.94696e-272
3.24501e-270
2.11802e-268
1.37553e-266
8.88842e-265
5.71451e-263
3.65529e-261
2.32617e-259
1.47274e-257
9.276e-256
5.81212e-254
3.62271e-252
2.24619e-250
1.38534e-248
8.49875e-247
5.18591e-245
3.14741e-243
1.89989e-241
1.1406e-239
6.81013e-238
4.04371e-236
2.38777e-234
1.4021e-232
8.18701e-231
4.75351e-229
2.74431e-227
1.5753e-225
8.9907e-224
5.10158e-222
2.87795e-220
1.61403e-218
8.99855e-217
4.98714e-215
2.74746e-213
1.50451e-211
8.18891e-210
4.43002e-208
2.38187e-206
1.27275e-204
6.75874e-203
3.56669e-201
1.87036e-199
9.74595e-198
5.04598e-196
2.59579e-194
1.32671e-192
6.73669e-191
3.39829e-189
1.70293e-187
8.47685e-186
4.19136e-184
2.05842e-182
1.00405e-180
4.86397e-179
2.34003e-177
1.11796e-175
5.30372e-174
2.4984e-172
1.16855e-170
5.42639e-169
2.50168e-167
1.14494e-165
5.20165e-164
2.34574e-162
1.04997e-160
4.66446e-159
2.05651e-157
8.99777e-156
3.90652e-154
1.68293e-152
7.19343e-151
3.0505e-149
1.28334e-147
5.35574e-146
2.21704e-144
9.10278e-143
3.70672e-141
1.49688e-139
5.9943e-138
2.38016e-136
9.37046e-135
3.65735e-133
1.41511e-131
5.42744e-130
2.06323e-128
7.77335e-127
2.90231e-125
1.07378e-123
3.93624e-122
1.42957e-120
5.1434e-119
1.83303e-117
6.47034e-116
2.26192e-114
7.83029e-113
2.68401e-111
9.10864e-110
3.06011e-108
1.01763e-106
3.34939e-105
1.09097e-103
3.51626e-102
1.1213e-100
3.53739e-99
1.10385e-97
3.40682e-96
1.03979e-94
3.13791e-93
9.36218e-92
2.76118e-90
8.04887e-89
2.31864e-87
6.59971e-86
1.85586e-84
5.155e-83
1.41418e-81
3.83092e-80
1.02459e-78
2.70504e-77
7.04849e-76
1.81234e-74
4.59751e-73
1.15044e-71
2.83907e-70
6.90835e-69
1.65717e-67
3.91799e-66
9.12778e-65
2.09496e-63
4.73581e-62
1.05418e-60
2.3101e-59
4.98232e-58
1.05731e-56
2.2071e-55
4.53076e-54
9.1437e-53
1.81361e-51
3.53427e-50
6.76471e-49
1.2713e-47
2.345e-46
4.24404e-45
7.53342e-44
1.31103e-42
2.23597e-41
3.73565e-40
6.11116e-39
9.7845e-38
1.53251e-36
2.34693e-35
3.51239e-34
5.1342e-33
7.32591e-32
1.01978e-30
1.384e-29
1.83004e-28
2.35601e-27
2.95097e-26
3.59326e-25
4.25002e-24
4.8786e-23
5.43001e-22
5.85444e-21
6.10797e-20
6.15965e-19
5.9972e-18
5.63025e-17
5.08985e-16
4.42436e-15
3.69219e-14
2.95307e-13
2.25957e-12
1.65074e-11
1.14894e-10
7.60085e-10
4.76706e-09
2.82642e-08
1.57931e-07
8.28788e-07
4.06921e-06
1.86132e-05
7.89443e-05
0.00030883
0.00110781
0.00362015
0.0107003
0.0283883
0.0670679
0.140046
0.256976
0.413549
0.586451
0.743024
0.859954
0.932932
0.971612
0.9893
0.99638
0.998892
0.999691
0.999921
0.999981
0.999996
0.999999
1
1
1
1
1
1
1
1
1
1
1
1
1
1
1
1
1
1
1
1
1
1
1
1
1
1
1
1
1
1
1
1
1
1
1
1
1
1
1
1
1
1
1
1
1
1
1
1
1
1
1
1
1
1
1
1
1
1
1
1
1
1
1
1
1
1
1
1
1
1
1
1
1
1
0.999999
0.999996
0.999981
0.999921
0.999691
0.998892
0.99638
0.9893
0.971612
0.932932
0.859954
0.743024
0.586451
0.413549
0.256976
0.140046
0.0670679
0.0283883
0.0107003
0.00362015
0.00110781
0.00030883
7.89443e-05
1.86132e-05
4.06921e-06
8.28788e-07
1.57931e-07
2.82642e-08
4.76706e-09
7.60085e-10
1.14894e-10
1.65074e-11
2.25957e-12
2.95307e-13
3.69219e-14
4.42436e-15
5.08985e-16
5.63025e-17
5.9972e-18
6.15965e-19
6.10797e-20
5.85444e-21
5.43001e-22
4.8786e-23
4.25002e-24
3.59326e-25
2.95097e-26
2.35601e-27
1.83004e-28
1.384e-29
1.01978e-30
7.32591e-32
5.1342e-33
3.51239e-34
2.34693e-35
1.53251e-36
9.7845e-38
6.11116e-39
3.73565e-40
2.23597e-41
1.31103e-42
7.53342e-44
4.24404e-45
2.345e-46
1.2713e-47
6.76471e-49
3.53427e-50
1.81361e-51
9.1437e-53
4.53076e-54
2.2071e-55
1.05731e-56
4.98232e-58
2.3101e-59
1.05418e-60
4.73581e-62
2.09496e-63
9.12778e-65
3.91799e-66
1.65717e-67
6.90835e-69
2.83907e-70
1.15044e-71
4.59751e-73
1.81234e-74
7.04849e-76
2.70504e-77
1.02459e-78
3.83092e-80
1.41418e-81
5.155e-83
1.85586e-84
6.59971e-86
2.31864e-87
8.04887e-89
2.76118e-90
9.36218e-92
3.13791e-93
1.03979e-94
3.40682e-96
1.10385e-97
3.53739e-99
1.1213e-100
3.51626e-102
1.09097e-103
3.34939e-105
1.01763e-106
3.06011e-108
9.10864e-110
2.68401e-111
7.83029e-113
2.26192e-114
6.47034e-116
1.83303e-117
5.1434e-119
1.42957e-120
3.93624e-122
1.07378e-123
2.90231e-125
7.77335e-127
2.06323e-128
5.42744e-130
1.41511e-131
3.65735e-133
9.37046e-135
2.38016e-136
5.9943e-138
1.49688e-139
3.70672e-141
9.10278e-143
2.21704e-144
5.35574e-146
1.28334e-147
3.0505e-149
7.19343e-151
1.68293e-152
3.90652e-154
8.99777e-156
2.05651e-157
4.66446e-159
1.04997e-160
2.34574e-162
5.20165e-164
1.14494e-165
2.50168e-167
5.42639e-169
1.16855e-170
2.4984e-172
5.30372e-174
1.11796e-175
2.34003e-177
4.86397e-179
1.00405e-180
2.05842e-182
4.19136e-184
8.47685e-186
1.70293e-187
3.39829e-189
6.73669e-191
1.32671e-192
2.59579e-194
5.04598e-196
9.74595e-198
1.87036e-199
3.56669e-201
6.75874e-203
1.27275e-204
2.38187e-206
4.43002e-208
8.18891e-210
1.50451e-211
2.74746e-213
4.98714e-215
8.99855e-217
1.61403e-218
2.87795e-220
5.10158e-222
8.9907e-224
1.5753e-225
2.74431e-227
4.75351e-229
8.18701e-231
1.4021e-232
2.38777e-234
4.04371e-236
6.81013e-238
1.1406e-239
1.89989e-241
3.14741e-243
5.18591e-245
8.49875e-247
1.38534e-248
2.24619e-250
3.62271e-252
5.81212e-254
9.276e-256
1.47274e-257
2.32617e-259
3.65529e-261
5.71451e-263
8.88842e-265
1.37553e-266
2.11802e-268
3.24501e-270
4.94696e-272
7.50429e-274
1.13277e-275
1.70155e-277
2.5435e-279
3.78367e-281
5.60144e-283
8.25284e-285
1.21014e-286
1.76606e-288
2.56522e-290
3.70854e-292
5.33645e-294
7.64333e-296
1.08969e-297
1.54641e-299
2.18454e-301
3.07195e-303
4.30031e-305
5.99276e-307
8.31389e-309
1.14827e-310
1.57888e-312
2.16141e-314
2.94587e-316
3.99741e-318
5.39421e-320
6.57107e-322
0
0
0
0
0
0
0
0
0
0
0
0
0
0
0
0
0
0
0
0
0
0
0
0
0
0
0
0
0
0
0
0
0
0
0
0
0
0
0
0
0
0
0
0
0
0
0
0
0
0
0
0
0
0
0
0
0
0
0
0
0
0
0
0
0
0
0
0
0
0
0
0
0
0
0
0
0
0
0
0
0
0
0
0
0
0
0
0
0
0
0
0
0
0
0
0
0
0
0
0
0
0
0
0
0
0
0
0
0
0
0
0
0
0
0
0
0
0
0
0
0
0
0
0
0
0
0
0
0
0
0
0
0
0
0
0
0
0
0
0
0
0
0
0
0
0
0
0
0
0
0
0
0
0
0
0
0
0
0
0
0
0
0
0
0
0
0
0
0
0
0
0
0
0
0
0
0
0
0
0
0
0
0
0
0
0
0
0
0
0
0
0
0
0
0
0
0
0
0
0
0
0
0
0
0
0
0
0
0
0
0
0
0
0
0
0
0
0
0
0
0
0
0
0
0
0
0
0
0
0
0
)
;

boundaryField
{
    sides
    {
        type            zeroGradient;
    }
    empty
    {
        type            empty;
    }
}


// ************************************************************************* //
