/*--------------------------------*- C++ -*----------------------------------*\
| =========                 |                                                 |
| \\      /  F ield         | OpenFOAM: The Open Source CFD Toolbox           |
|  \\    /   O peration     | Version:  2312                                  |
|   \\  /    A nd           | Website:  www.openfoam.com                      |
|    \\/     M anipulation  |                                                 |
\*---------------------------------------------------------------------------*/
FoamFile
{
    version     2.0;
    format      ascii;
    arch        "LSB;label=32;scalar=64";
    class       volScalarField;
    location    "3.7";
    object      T;
}
// * * * * * * * * * * * * * * * * * * * * * * * * * * * * * * * * * * * * * //

dimensions      [0 0 0 1 0 0 0];

internalField   nonuniform List<scalar> 
1000
(
0
0
0
0
0
0
0
0
0
0
0
0
0
0
0
0
0
0
0
0
0
0
0
0
0
0
0
0
0
0
0
0
0
0
0
0
0
0
0
0
0
0
0
0
0
0
0
0
0
0
0
0
0
0
0
0
0
0
0
0
0
0
0
0
0
0
0
0
0
0
0
0
0
0
0
0
0
0
0
0
0
0
0
0
0
0
0
0
0
0
0
0
0
0
0
0
0
0
0
0
0
0
0
0
0
0
0
0
0
0
0
0
0
0
0
0
0
0
0
0
0
0
0
0
0
0
0
0
0
0
0
0
0
0
0
0
0
0
0
0
0
0
0
0
0
0
0
0
0
0
0
0
0
0
0
0
0
0
0
0
0
0
0
0
0
0
0
0
0
0
0
0
0
-4.94066e-324
2.96439e-323
-4.94066e-324
2.96439e-323
-4.94066e-324
2.96439e-323
-4.94066e-324
2.96439e-323
-4.94066e-324
2.96439e-323
-4.94066e-324
2.96439e-323
-4.94066e-324
2.96439e-323
-4.94066e-324
2.96439e-323
-4.94066e-324
2.96439e-323
-4.94066e-324
2.96439e-323
-4.94066e-324
2.96439e-323
-4.94066e-324
2.96439e-323
-4.94066e-324
2.96439e-323
-4.94066e-324
2.96439e-323
-4.94066e-324
2.96439e-323
-4.94066e-324
2.96439e-323
-4.94066e-324
2.96439e-323
-4.94066e-324
2.96439e-323
-4.94066e-324
2.96439e-323
-4.94066e-324
2.96439e-323
-4.94066e-324
2.96439e-323
-4.94066e-324
2.96439e-323
-4.94066e-324
2.96439e-323
-4.94066e-324
2.96439e-323
-4.94066e-324
2.96439e-323
-4.94066e-324
2.96439e-323
-4.94066e-324
2.96439e-323
-4.94066e-324
2.96439e-323
-4.94066e-324
2.96439e-323
-4.94066e-324
2.96439e-323
-4.94066e-324
2.96439e-323
-4.94066e-324
2.96439e-323
-4.94066e-324
2.96439e-323
-4.94066e-324
2.96439e-323
-4.94066e-324
2.96439e-323
-4.94066e-324
2.96439e-323
-4.94066e-324
2.96439e-323
-4.94066e-324
2.96439e-323
-4.94066e-324
2.96439e-323
-4.94066e-324
2.96439e-323
-4.94066e-324
2.96439e-323
-4.94066e-324
2.96439e-323
-4.94066e-324
9.88131e-324
2.96439e-323
5.43472e-323
7.41098e-323
9.88131e-323
1.18576e-322
1.43279e-322
1.63042e-322
1.87745e-322
2.12448e-322
2.37152e-322
2.61855e-322
2.86558e-322
3.06321e-322
3.26083e-322
3.45846e-322
3.65609e-322
4.15015e-322
4.00193e-322
3.7549e-322
3.55727e-322
3.35965e-322
3.16202e-322
2.96439e-322
2.76677e-322
2.51973e-322
2.2727e-322
2.02567e-322
1.77864e-322
1.4822e-323
-6.78846e-321
-3.09167e-319
-1.09351e-317
-3.04461e-316
-6.99746e-315
-1.38589e-313
-2.43853e-312
-3.88054e-311
-5.63233e-310
-7.48202e-309
-9.11451e-308
-1.02132e-306
-1.0588e-305
-1.0254e-304
-9.42999e-304
-8.44098e-303
-7.60441e-302
-7.13335e-301
-7.17433e-300
-7.79002e-299
-7.91099e-298
-1.5672e-297
2.00688e-297
6.42555e-296
9.09226e-295
1.21486e-293
1.68096e-292
2.46664e-291
4.23941e-290
8.38117e-289
2.24675e-287
5.9879e-286
3.32399e-284
1.29593e-282
6.8004e-280
7.1252e-278
3.63179e-276
1.14882e-274
2.54272e-273
4.22456e-272
5.51713e-271
5.83982e-270
5.10992e-269
3.71477e-268
2.26674e-267
1.30827e-266
9.89136e-266
1.19462e-264
1.68685e-263
3.54117e-263
-9.00974e-263
-2.86522e-261
-5.11861e-260
-8.55601e-259
-1.35712e-257
-2.12292e-256
-3.0584e-255
-4.40702e-254
-7.3014e-253
-1.50641e-251
-3.89988e-250
-1.05848e-248
-2.52657e-247
-4.98874e-246
-8.10936e-245
-1.09965e-243
-1.26393e-242
-1.25034e-241
-1.08103e-240
-8.44135e-240
-6.54514e-239
-6.00748e-238
-7.1003e-237
-2.41943e-236
7.57437e-237
8.26141e-235
1.54313e-233
2.60934e-232
4.32974e-231
6.90525e-230
1.09978e-228
1.61758e-227
2.42874e-226
4.46204e-225
9.68941e-224
2.29612e-222
5.4975e-221
1.20809e-219
2.29025e-218
3.66877e-217
4.97452e-216
5.76298e-215
5.77378e-214
5.07151e-213
3.97587e-212
2.87296e-211
2.04596e-210
1.60604e-209
1.32941e-208
2.588e-208
-2.64473e-208
-9.87895e-207
-1.49636e-205
-2.13602e-204
-3.00562e-203
-4.2138e-202
-5.74675e-201
-7.99831e-200
-1.03193e-198
-1.605e-197
-4.54862e-196
-1.33309e-194
-3.64489e-193
-1.06553e-191
-3.00855e-190
-7.16968e-189
-1.38554e-187
-2.18939e-186
-2.89081e-185
-3.25204e-184
-3.17457e-183
-2.76266e-182
-2.22954e-181
-1.74096e-180
-1.40703e-179
-1.23774e-178
-3.77962e-178
-8.26844e-179
5.62056e-177
7.60412e-176
1.02041e-174
1.47611e-173
1.95278e-172
1.9786e-171
2.20497e-170
3.40707e-169
5.18783e-168
6.05149e-167
4.72002e-166
3.46069e-165
7.10193e-164
2.53361e-162
1.97906e-161
5.60513e-161
1.62651e-160
3.7377e-159
7.5996e-158
4.98276e-158
-1.12806e-156
2.84906e-157
1.09651e-154
3.46639e-154
-2.11984e-153
-1.42479e-152
3.88183e-152
1.04802e-150
5.7052e-151
-4.65274e-149
-1.40013e-148
7.67106e-148
7.89872e-147
-4.99873e-147
-5.1928e-145
-9.26345e-145
9.0058e-144
7.43516e-143
-4.36348e-143
-4.76604e-141
-1.44607e-140
4.82303e-140
4.27076e-139
-3.40049e-139
-2.93899e-137
-2.11595e-136
-5.02432e-138
2.24435e-135
-6.906e-136
-1.22555e-133
-2.44143e-132
-4.65339e-132
1.36333e-131
1.95111e-131
-3.42646e-130
-9.03722e-129
-7.08031e-128
-3.76897e-128
1.45742e-126
4.13125e-126
-9.81144e-126
-3.32559e-124
-1.17447e-123
1.02674e-123
5.37862e-122
1.97448e-121
-1.40865e-121
-8.46499e-120
-4.87811e-119
-1.52062e-119
1.07702e-117
9.86648e-117
8.51409e-117
-1.19867e-115
-7.67364e-115
-2.55335e-115
1.54396e-113
2.49679e-112
1.03181e-111
1.61608e-112
-2.12068e-110
-1.20389e-109
-5.71721e-110
1.86313e-108
2.56303e-107
5.40057e-107
-6.85915e-107
-2.16995e-105
-1.80313e-104
-1.88395e-104
1.11774e-103
1.8991e-102
7.26445e-102
2.10372e-102
-1.09824e-100
-1.36761e-99
-3.66211e-99
7.35281e-100
7.54073e-98
8.09226e-97
1.68853e-96
-1.11639e-96
-4.28481e-95
-4.59841e-94
-1.29375e-93
-1.60577e-94
1.88916e-92
2.0609e-91
5.75343e-91
9.5573e-92
-7.77166e-90
-8.61999e-89
-4.43002e-88
-4.14702e-88
2.06156e-87
2.84166e-86
2.37002e-85
5.19133e-85
-1.22662e-86
-7.34102e-84
-7.34282e-83
-4.10535e-82
-4.5712e-82
1.07111e-81
1.69853e-80
1.43268e-79
4.6017e-79
3.02511e-79
-2.81247e-78
-3.00842e-77
-2.34299e-76
-1.6878e-75
-1.17945e-74
-8.09057e-74
-5.46854e-73
-3.65104e-72
-2.40924e-71
-1.57155e-70
-7.34748e-70
-8.68287e-70
9.03747e-70
1.74258e-68
1.31297e-67
8.51773e-67
5.25657e-66
3.1675e-65
1.87878e-64
1.09988e-63
6.36106e-63
3.6357e-62
2.05397e-61
1.14706e-60
6.33289e-60
3.45671e-59
1.8655e-58
9.95459e-58
5.25256e-57
2.7407e-56
1.41421e-55
7.21696e-55
3.64251e-54
1.81834e-53
8.97832e-53
4.38513e-52
2.11863e-51
1.01259e-50
4.78778e-50
2.23962e-49
1.0365e-48
4.74616e-48
2.15032e-47
9.63983e-47
4.27619e-46
1.87707e-45
8.15371e-45
3.50505e-44
1.49112e-43
6.27798e-43
2.61597e-42
1.07885e-41
4.40372e-41
1.77917e-40
7.11489e-40
2.81631e-39
1.10348e-38
4.27989e-38
1.64321e-37
6.24533e-37
2.34978e-36
8.75225e-36
3.2273e-35
1.17813e-34
4.25786e-34
1.52348e-33
5.39685e-33
1.89281e-32
6.57265e-32
2.25969e-31
7.69193e-31
2.59243e-30
8.65101e-30
2.85837e-29
9.3512e-29
3.02911e-28
9.71551e-28
3.08547e-27
9.7025e-27
3.02103e-26
9.31402e-26
2.84335e-25
8.59479e-25
2.57248e-24
7.62399e-24
2.23729e-23
6.50091e-23
1.8704e-22
5.32847e-22
1.50306e-21
4.19807e-21
1.16098e-20
3.17902e-20
8.61897e-20
2.31369e-19
6.14944e-19
1.61824e-18
4.21621e-18
1.08759e-17
2.77759e-17
7.02297e-17
1.75799e-16
4.35658e-16
1.06881e-15
2.5958e-15
6.2409e-15
1.48531e-14
3.49924e-14
8.16021e-14
1.8836e-13
4.3035e-13
9.73169e-13
2.17807e-12
4.82458e-12
1.05763e-11
2.29446e-11
4.92582e-11
1.04643e-10
2.19969e-10
4.57516e-10
9.41515e-10
1.91691e-09
3.86107e-09
7.69346e-09
1.51642e-08
2.95647e-08
5.70111e-08
1.0873e-07
2.05075e-07
3.8249e-07
7.0541e-07
1.2863e-06
2.31895e-06
4.13285e-06
7.28086e-06
1.2678e-05
2.18181e-05
3.71053e-05
6.23543e-05
0.000103529
0.000169816
0.000275146
0.000440321
0.000695893
0.00108599
0.00167328
0.0025451
0.00382101
0.00566137
0.00827697
0.0119388
0.016987
0.023838
0.0329873
0.045006
0.0605294
0.0802339
0.104802
0.134872
0.17098
0.213487
0.262504
0.317822
0.378858
0.444617
0.5137
0.58435
0.654543
0.722126
0.784987
0.841241
0.889405
0.92854
0.958328
0.979069
0.991667
0.997725
0.999661
0.99998
1
1
1
1
1
1
1
1
1
1
1
1
1
1
1
1
1
1
1
1
1
1
1
1
1
1
1
1
1
1
1
1
1
1
1
1
1
1
1
1
1
1
1
1
1
1
1
1
1
1
1
0.999999
0.999999
0.999998
0.999996
0.999993
0.999987
0.999978
0.999963
0.999938
0.999896
0.99983
0.999725
0.999559
0.999303
0.998913
0.998325
0.997453
0.996176
0.994334
0.991716
0.988052
0.983001
0.976146
0.966991
0.954967
0.939436
0.919723
0.895146
0.865066
0.828947
0.78643
0.737402
0.682075
0.621032
0.555268
0.486182
0.415533
0.345345
0.27777
0.21492
0.15868
0.11053
0.0714101
0.0416371
0.0209087
0.00832121
0.0022705
0.000338151
2.03388e-05
3.56138e-07
1.34389e-09
8.52728e-13
8.29669e-17
7.40358e-21
6.59911e-25
5.84026e-29
5.12654e-33
4.46821e-37
3.87416e-41
3.34838e-45
2.88984e-49
2.49384e-53
2.15365e-57
1.86184e-61
1.61128e-65
1.39562e-69
1.20948e-73
1.04842e-77
9.08829e-82
7.87724e-86
6.82631e-90
5.9145e-94
5.12373e-98
4.43827e-102
3.84434e-106
3.32986e-110
2.88429e-114
2.49841e-118
2.16422e-122
1.87476e-126
1.62405e-130
1.40686e-134
1.21872e-138
1.05573e-142
9.14532e-147
7.92212e-151
6.86247e-155
5.94452e-159
5.14935e-163
4.46052e-167
3.86383e-171
3.34695e-175
2.89922e-179
2.51137e-183
2.1754e-187
1.88437e-191
1.63227e-195
1.41389e-199
1.22473e-203
1.06087e-207
9.18931e-212
7.9598e-216
6.89477e-220
5.97223e-224
5.17311e-228
4.48091e-232
3.88131e-236
3.36194e-240
2.91206e-244
2.52237e-248
2.18482e-252
1.89244e-256
1.63918e-260
1.41981e-264
1.22979e-268
1.06521e-272
9.22641e-277
7.99155e-281
6.92194e-285
5.99547e-289
5.19299e-293
4.4979e-297
3.89584e-301
3.37436e-305
2.92268e-309
2.53144e-313
2.19257e-317
1.89227e-321
0
0
0
0
0
0
0
0
0
0
0
0
0
0
0
0
0
0
0
0
0
0
0
0
0
0
0
0
0
0
0
0
0
0
0
0
0
0
0
0
0
0
0
0
0
0
0
0
0
0
0
0
0
0
0
0
0
0
0
0
0
0
0
0
0
0
0
0
0
0
0
0
0
0
0
0
0
0
0
0
0
0
0
0
0
0
0
0
0
0
0
0
0
0
0
0
0
0
)
;

boundaryField
{
    sides
    {
        type            zeroGradient;
    }
    empty
    {
        type            empty;
    }
}


// ************************************************************************* //
