/*--------------------------------*- C++ -*----------------------------------*\
| =========                 |                                                 |
| \\      /  F ield         | OpenFOAM: The Open Source CFD Toolbox           |
|  \\    /   O peration     | Version:  2312                                  |
|   \\  /    A nd           | Website:  www.openfoam.com                      |
|    \\/     M anipulation  |                                                 |
\*---------------------------------------------------------------------------*/
FoamFile
{
    version     2.0;
    format      ascii;
    arch        "LSB;label=32;scalar=64";
    class       volScalarField;
    location    "3.7";
    object      T;
}
// * * * * * * * * * * * * * * * * * * * * * * * * * * * * * * * * * * * * * //

dimensions      [0 0 0 1 0 0 0];

internalField   nonuniform List<scalar> 
1000
(
0
0
0
0
0
0
0
0
0
0
0
0
0
0
0
0
0
0
0
0
0
0
0
0
0
0
0
0
0
0
0
0
0
0
0
0
0
0
0
0
0
0
0
0
0
0
0
0
0
0
0
0
0
0
0
0
0
0
0
0
0
0
0
0
0
0
0
0
0
0
0
0
0
0
0
0
0
0
0
0
0
0
0
0
0
0
0
0
0
0
0
0
0
0
0
0
0
0
0
0
0
0
0
0
0
0
0
0
0
0
0
0
0
0
0
0
0
0
0
0
0
0
0
0
0
0
0
0
0
0
0
0
0
0
0
0
0
0
0
0
0
0
0
0
0
0
0
0
0
0
0
0
0
0
0
0
0
0
0
0
0
0
0
0
0
0
0
0
0
0
0
0
0
0
0
0
0
0
0
0
0
0
0
0
0
0
0
0
0
0
0
0
0
0
0
0
0
0
0
0
0
0
0
0
0
0
0
0
0
0
0
0
0
0
0
0
0
0
0
0
0
0
0
0
0
0
0
0
0
0
0
0
0
0
0
0
0
0
0
0
0
0
0
0
0
0
0
0
0
0
0
0
0
0
0
0
0
0
0
0
0
0
0
0
0
0
0
0
0
0
0
0
0
0
0
0
0
0
0
0
0
0
0
0
0
0
0
0
0
0
0
0
0
0
0
0
0
0
0
0
0
0
0
0
0
0
0
0
0
0
0
0
0
0
0
0
0
0
0
0
0
0
0
0
0
0
0
0
0
0
0
0
0
0
0
0
0
0
0
0
0
0
0
0
0
0
0
0
0
0
0
0
0
0
0
0
0
0
0
0
0
0
0
0
0
0
0
0
0
0
0
0
0
0
0
0
0
0
0
0
0
0
0
0
0
0
0
0
0
0
0
0
0
0
0
0
0
0
0
0
0
0
0
0
0
0
0
0
0
0
0
0
0
0
0
0
0
0
0
0
0
0
0
0
0
0
0
0
0
0
0
0
0
0
0
0
0
0
0
0
0
0
0
0
0
0
0
0
0
0
2.21206e-106
5.23051e-104
6.18566e-102
4.87821e-100
2.88616e-98
1.36645e-96
5.39278e-95
1.82477e-93
5.40423e-92
1.42309e-90
3.37364e-89
7.27271e-88
1.43757e-86
2.62377e-85
4.44795e-84
7.03974e-83
1.04484e-81
1.45995e-80
1.9272e-79
2.41078e-78
2.86576e-77
3.2453e-76
3.50907e-75
3.63036e-74
3.60037e-73
3.4288e-72
3.14071e-71
2.77108e-70
2.3583e-69
1.93836e-68
1.54054e-67
1.18521e-66
8.83599e-66
6.38963e-65
4.48597e-64
3.06037e-63
2.0304e-62
1.31104e-61
8.24503e-61
5.05375e-60
3.02111e-59
1.76246e-58
1.004e-57
5.58797e-57
3.0403e-56
1.61787e-55
8.42466e-55
4.29484e-54
2.14449e-53
1.04923e-52
5.03237e-52
2.367e-51
1.09224e-50
4.94643e-50
2.19925e-49
9.60314e-49
4.11959e-48
1.73674e-47
7.19761e-47
2.93322e-46
1.17579e-45
4.63727e-45
1.79995e-44
6.8776e-44
2.58762e-43
9.58868e-43
3.50037e-42
1.25911e-41
4.46386e-41
1.56006e-40
5.37594e-40
1.82698e-39
6.12443e-39
2.02552e-38
6.61038e-38
2.12919e-37
6.76986e-37
2.12518e-36
6.58775e-36
2.01685e-35
6.09927e-35
1.82228e-34
5.37964e-34
1.56948e-33
4.52572e-33
1.29006e-32
3.63563e-32
1.01312e-31
2.79195e-31
7.60986e-31
2.05175e-30
5.47273e-30
1.44433e-29
3.77195e-29
9.7488e-29
2.49386e-28
6.31504e-28
1.58311e-27
3.92938e-27
9.65736e-27
2.3505e-26
5.66597e-26
1.35282e-25
3.19966e-25
7.49726e-25
1.74052e-24
4.00379e-24
9.12682e-24
2.06187e-23
4.61673e-23
1.02465e-22
2.25435e-22
4.91706e-22
1.06332e-21
2.27999e-21
4.84778e-21
1.02218e-20
2.13758e-20
4.4336e-20
9.12141e-20
1.86153e-19
3.76886e-19
7.57031e-19
1.50872e-18
2.98351e-18
5.85456e-18
1.14009e-17
2.20339e-17
4.22644e-17
8.04673e-17
1.52072e-16
2.85294e-16
5.31342e-16
9.82469e-16
1.80365e-15
3.28774e-15
5.95088e-15
1.06961e-14
1.90922e-14
3.38448e-14
5.95882e-14
1.04203e-13
1.81001e-13
3.12303e-13
5.35292e-13
9.11481e-13
1.54194e-12
2.5916e-12
4.32787e-12
7.18133e-12
1.18408e-11
1.94008e-11
3.15895e-11
5.11175e-11
8.2209e-11
1.31405e-10
2.08768e-10
3.29681e-10
5.17515e-10
8.07545e-10
1.25269e-09
1.93185e-09
2.9619e-09
4.51497e-09
6.84294e-09
1.03122e-08
1.54524e-08
2.30248e-08
3.41166e-08
5.02717e-08
7.36688e-08
1.07365e-07
1.55625e-07
2.2436e-07
3.2172e-07
4.58874e-07
6.51039e-07
9.18825e-07
1.28999e-06
1.80171e-06
2.50346e-06
3.46075e-06
4.75978e-06
6.51337e-06
8.86833e-06
1.20146e-05
1.61966e-05
2.17268e-05
2.90031e-05
3.85284e-05
5.09354e-05
6.70156e-05
8.7753e-05
0.000114365
0.000148348
0.000191533
0.000246145
0.000314875
0.000400957
0.00050826
0.000641378
0.000805745
0.00100774
0.00125482
0.00155565
0.00192021
0.00235999
0.00288807
0.0035193
0.0042704
0.00516012
0.0062093
0.00744101
0.00888058
0.0105557
0.0124962
0.0147344
0.0173048
0.0202438
0.0235897
0.0273827
0.031664
0.0364761
0.0418617
0.0478639
0.0545253
0.0618874
0.0699901
0.0788711
0.0885651
0.0991032
0.110512
0.122814
0.136025
0.150155
0.165208
0.18118
0.198059
0.215828
0.23446
0.253919
0.274163
0.295143
0.316801
0.339074
0.36189
0.385174
0.408845
0.432819
0.457009
0.481324
0.505674
0.529969
0.55412
0.578037
0.601638
0.62484
0.647568
0.669751
0.691323
0.712226
0.732409
0.751826
0.77044
0.788221
0.805148
0.821203
0.83638
0.850676
0.864095
0.876649
0.888351
0.899224
0.90929
0.918578
0.92712
0.934948
0.942099
0.948608
0.954514
0.959855
0.964668
0.968992
0.972863
0.976317
0.979388
0.98211
0.984514
0.986629
0.988484
0.990103
0.99151
0.992728
0.993775
0.994669
0.995425
0.996057
0.996576
0.996992
0.997311
0.99754
0.997682
0.997739
0.997708
0.99759
0.997377
0.997064
0.996641
0.996096
0.995417
0.994586
0.993586
0.992394
0.990987
0.989338
0.987419
0.985198
0.982641
0.979713
0.976376
0.972591
0.968315
0.963507
0.958125
0.952126
0.945467
0.938107
0.930005
0.921125
0.911432
0.900895
0.889486
0.877185
0.863974
0.849844
0.834792
0.81882
0.80194
0.784171
0.76554
0.746081
0.725837
0.704857
0.683198
0.660926
0.63811
0.614826
0.591155
0.567181
0.542991
0.518676
0.494326
0.470031
0.44588
0.421963
0.398362
0.37516
0.352432
0.330249
0.308677
0.287774
0.267591
0.248174
0.22956
0.211779
0.194852
0.178797
0.16362
0.149324
0.135905
0.123351
0.111649
0.100776
0.0907099
0.0814214
0.0728797
0.0650511
0.0579004
0.0513906
0.045484
0.0401426
0.0353283
0.0310033
0.0271307
0.0236744
0.0205999
0.0178737
0.0154643
0.0133417
0.0114777
0.00984618
0.00842257
0.00718436
0.00611081
0.00518296
0.00438354
0.00369695
0.00310909
0.00260732
0.00218037
0.0018182
0.00151193
0.00125372
0.00103669
0.000854829
0.000702902
0.000576365
0.00047129
0.000384299
0.000312495
0.000253404
0.000204918
0.000165252
0.000132897
0.000106583
8.52444e-05
6.79915e-05
5.40823e-05
4.29012e-05
3.39392e-05
2.67764e-05
2.10681e-05
1.6532e-05
1.29375e-05
1.00973e-05
7.85948e-06
6.10124e-06
4.72368e-06
3.6474e-06
2.80887e-06
2.15737e-06
1.6526e-06
1.26259e-06
9.62087e-07
7.31177e-07
5.54232e-07
4.19009e-07
3.15953e-07
2.37624e-07
1.7825e-07
1.33366e-07
9.9526e-08
7.40814e-08
5.50003e-08
4.07294e-08
3.00843e-08
2.21647e-08
1.62885e-08
1.19398e-08
8.72998e-09
6.36697e-09
4.63189e-09
3.36119e-09
2.43299e-09
1.75672e-09
1.26526e-09
9.09032e-10
6.51481e-10
4.65747e-10
3.32144e-10
2.36285e-10
1.67679e-10
1.18702e-10
8.3826e-11
5.90529e-11
4.15002e-11
2.90942e-11
2.03476e-11
1.41963e-11
9.88081e-12
6.86071e-12
4.75235e-12
3.28406e-12
2.26403e-12
1.55712e-12
1.06841e-12
7.31352e-13
4.99452e-13
3.40284e-13
2.31299e-13
1.56852e-13
1.0612e-13
7.16299e-14
4.82377e-14
3.24097e-14
2.17251e-14
1.45295e-14
9.69494e-15
6.45425e-15
4.28703e-15
2.84105e-15
1.87852e-15
1.23928e-15
8.15726e-16
5.35723e-16
3.51044e-16
2.29514e-16
1.49723e-16
9.74538e-17
6.32913e-17
4.10134e-17
2.65185e-17
1.71085e-17
1.10134e-17
7.0742e-18
4.53401e-18
2.89961e-18
1.85034e-18
1.1782e-18
7.48593e-19
4.74607e-19
3.00252e-19
1.89541e-19
1.19396e-19
7.50496e-20
4.70738e-20
2.94635e-20
1.84022e-20
1.14692e-20
7.13311e-21
4.427e-21
2.74175e-21
1.69447e-21
1.04504e-21
6.43169e-22
3.95014e-22
2.42102e-22
1.48076e-22
9.03805e-23
5.50514e-23
3.34633e-23
2.02992e-23
1.22886e-23
7.42396e-24
4.47596e-24
2.69311e-24
1.61712e-24
9.69066e-25
5.79546e-25
3.45899e-25
2.06034e-25
1.22478e-25
7.26627e-26
4.30228e-26
2.54228e-26
1.49929e-26
8.8245e-27
5.18367e-27
3.03899e-27
1.77815e-27
)
;

boundaryField
{
    sides
    {
        type            zeroGradient;
    }
    empty
    {
        type            empty;
    }
}


// ************************************************************************* //
