/*--------------------------------*- C++ -*----------------------------------*\
| =========                 |                                                 |
| \\      /  F ield         | OpenFOAM: The Open Source CFD Toolbox           |
|  \\    /   O peration     | Version:  2312                                  |
|   \\  /    A nd           | Website:  www.openfoam.com                      |
|    \\/     M anipulation  |                                                 |
\*---------------------------------------------------------------------------*/
FoamFile
{
    version     2.0;
    format      ascii;
    arch        "LSB;label=32;scalar=64";
    class       volScalarField;
    location    "4.1";
    object      T;
}
// * * * * * * * * * * * * * * * * * * * * * * * * * * * * * * * * * * * * * //

dimensions      [0 0 0 1 0 0 0];

internalField   nonuniform List<scalar> 
1000
(
0.00421492
0.000724059
0.00307986
-0.00119084
0.0031932
-0.00279927
0.00412642
-0.00454084
0.00574418
-0.00668081
0.00802778
-0.00937858
0.0109896
-0.0127046
0.0146075
-0.0166267
0.0187693
-0.0209806
0.0232252
-0.025439
0.0275571
-0.0294984
0.0311771
-0.0324997
0.0333721
-0.0337026
0.033408
-0.0324199
0.0306916
-0.0282044
0.0249737
-0.0210541
0.0165425
-0.0115784
0.00634204
-0.00104804
-0.0040636
0.00874058
-0.0127343
0.0158178
-0.0178052
0.0185695
-0.0180591
0.016309
-0.013446
0.00968691
-0.00532727
0.000722046
0.00374173
-0.00767825
0.0107394
-0.0126509
0.0132437
-0.0124773
0.0104503
-0.00739612
0.00366355
0.000318541
-0.00408807
0.00720401
-0.00930133
0.0101395
-0.00963737
0.00788864
-0.00515392
0.00182917
0.00160692
-0.00465995
0.00689228
-0.00798989
0.00781278
-0.00641985
0.00406273
-0.00114768
-0.00182955
0.00436626
-0.00603914
0.00657914
-0.00592085
0.00421617
-0.00180792
-0.000833036
0.00319679
-0.00483292
0.00543939
-0.0049234
0.00342082
-0.00126847
-0.00106625
0.00308485
-0.00436554
0.00465587
-0.00392897
0.00238971
-0.00042784
-0.00147206
0.00284395
-0.00335019
0.00286122
-0.00148481
-0.000463578
0.00254301
-0.00430209
0.00539754
-0.00568552
0.00526083
-0.00443274
0.00364269
-0.00334542
0.00388595
-0.00540645
0.00780979
-0.0107906
0.0139256
-0.0167966
0.0191103
-0.0207786
0.0219333
-0.022872
0.0239485
-0.0254443
0.0274595
-0.0298599
0.0322981
-0.0343029
0.0354099
-0.03529
0.0338369
-0.0311834
0.0276428
-0.0235989
0.0193814
-0.015174
0.0109876
-0.00670695
0.00219494
0.00258789
-0.00749457
0.0121716
-0.0161199
0.0188201
-0.0198786
0.0191451
-0.0167596
0.0131121
-0.0087346
0.00416294
0.00017713
-0.00402282
0.00725317
-0.00981385
0.0116309
-0.0125604
0.0124045
-0.0109925
0.00829437
-0.00451437
0.000116429
0.00424187
-0.00785318
0.0101353
-0.0107759
0.00979693
-0.00751915
0.00444774
-0.00112733
-0.00197769
0.00453992
-0.00635928
0.00731538
-0.00732624
0.0063482
-0.00442314
0.00174535
0.00129923
-0.00416338
0.00625066
-0.00708026
0.00644439
-0.00449282
0.00170437
0.00124948
-0.00369944
0.00515942
-0.00543146
0.00460823
-0.00299179
0.000977288
0.001046
-0.00274804
0.00387092
-0.00423066
0.00373697
-0.00243692
0.000557753
0.00149293
-0.0032007
0.00408718
-0.00387574
0.0026092
-0.000659824
-0.00138486
0.00292064
-0.00353039
0.00311124
-0.00187966
0.000264674
0.0012544
-0.00229526
0.00265542
-0.00232183
0.0014324
-0.000224791
-0.00100808
0.00196007
-0.00236792
0.00208612
-0.00115893
-0.000153015
0.00142813
-0.00222214
0.00224169
-0.00147516
0.000211865
0.00106915
-0.00189513
0.0019905
-0.00137576
0.000335051
0.000721432
-0.00142745
0.0015861
-0.00120857
0.000472716
0.000359819
-0.00102721
0.00133123
-0.00118107
0.00062074
0.000168012
-0.000905196
0.00130277
-0.00118359
0.000575928
0.000274705
-0.00100068
0.00127972
-0.000992145
0.000282328
0.000512825
-0.0010318
0.00106256
-0.000631996
-2.89029e-05
0.000613277
-0.000884338
0.00076623
-0.000349223
-0.000172717
0.000588854
-0.000745795
0.000592357
-0.00019342
-0.000288228
0.000645579
-0.000710679
0.000439035
5.10814e-05
-0.000520648
0.000726886
-0.000557339
0.000100723
0.00039583
-0.00066476
0.000570314
-0.000182093
-0.000273568
0.000550234
-0.000519001
0.000226463
0.000150947
-0.000415664
0.000450918
-0.000264322
-3.48473e-05
0.000297866
-0.000403497
0.000306191
-5.44995e-05
-0.000226451
0.000389103
-0.000338971
9.4849e-05
0.000208639
-0.000391715
0.000339433
-8.06005e-05
-0.000223607
0.000381512
-0.000297126
3.28119e-05
0.000235957
-0.000340617
0.000228622
1.21408e-05
-0.000222754
0.000280243
-0.000167749
-3.04938e-05
0.000192485
-0.000231356
0.000136238
3.15291e-05
-0.000175289
0.000213195
-0.000121746
-4.69262e-05
0.000188959
-0.000209821
8.97175e-05
9.41838e-05
-0.000214457
0.000183722
-2.25046e-05
-0.000151851
0.000212042
-0.000117423
-5.65181e-05
0.000179065
-0.000165227
3.58605e-05
0.000106758
-0.00016145
0.000100099
2.24137e-05
-0.000117394
0.000125755
-5.09785e-05
-5.19667e-05
0.000115409
-9.96481e-05
1.57841e-05
7.9816e-05
-0.000119576
7.14894e-05
3.25533e-05
-0.000114206
0.000107293
-1.41236e-05
-9.10793e-05
0.000121404
-5.16044e-05
-5.8732e-05
0.000116414
-7.5562e-05
-2.45333e-05
9.72992e-05
-8.54282e-05
6.37448e-06
6.97299e-05
-8.32885e-05
3.12246e-05
3.8927e-05
-7.26582e-05
4.91919e-05
9.07792e-06
-5.74173e-05
6.07038e-05
-1.68349e-05
-4.10271e-05
6.67535e-05
-3.69707e-05
-2.60454e-05
6.83784e-05
-5.04873e-05
-1.39088e-05
6.63802e-05
-5.74058e-05
-4.94473e-06
6.12906e-05
-5.85046e-05
1.4238e-06
5.35284e-05
-5.52066e-05
6.31736e-06
4.36501e-05
-4.93983e-05
1.09407e-05
3.2567e-05
-4.31316e-05
1.61175e-05
2.16076e-05
-3.82125e-05
2.19452e-05
1.2344e-05
-3.57558e-05
2.77011e-05
6.19199e-06
-3.58552e-05
3.20826e-05
3.90457e-06
-3.75413e-05
3.37498e-05
5.17672e-06
-3.91348e-05
3.19957e-05
8.6015e-06
-3.89528e-05
2.7246e-05
1.21149e-05
-3.61219e-05
2.1085e-05
1.38462e-05
-3.11148e-05
1.56687e-05
1.30297e-05
-2.56512e-05
1.26981e-05
1.04794e-05
-2.18672e-05
1.24462e-05
8.24085e-06
-2.10819e-05
1.3455e-05
8.43611e-06
-2.28462e-05
1.32562e-05
1.18639e-05
-2.49696e-05
9.87525e-06
1.72458e-05
-2.47285e-05
3.24719e-06
2.17907e-05
-2.06464e-05
-4.49795e-06
2.29356e-05
-1.3641e-05
-1.0321e-05
2.01653e-05
-6.52449e-06
-1.24202e-05
1.54735e-05
-1.95872e-06
-1.16313e-05
1.18364e-05
-3.18776e-07
-1.07478e-05
1.0682e-05
6.55262e-07
-1.20084e-05
1.04962e-05
3.78037e-06
-1.47984e-05
8.10314e-06
9.50453e-06
-1.58673e-05
1.8405e-06
1.49272e-05
-1.23149e-05
-6.28738e-06
1.61532e-05
-4.72933e-06
-1.19454e-05
1.20747e-05
2.867e-06
-1.24459e-05
5.69366e-06
6.70953e-06
-9.35846e-06
1.15335e-06
6.93985e-06
-6.59062e-06
-6.02746e-07
6.91919e-06
-5.72541e-06
-2.42677e-06
8.58254e-06
-4.1832e-06
-6.61871e-06
9.43895e-06
9.64339e-07
-1.0856e-05
5.62862e-06
7.95788e-06
-1.02565e-05
-2.22568e-06
1.11708e-05
-3.80997e-06
-8.37447e-06
7.78405e-06
3.3799e-06
-8.44802e-06
1.61753e-06
6.01142e-06
-4.70569e-06
-1.84881e-06
4.95119e-06
-2.19469e-06
-2.60557e-06
4.55823e-06
-1.16335e-06
-4.48799e-06
4.82568e-06
2.18278e-06
-7.07609e-06
1.41611e-06
7.24247e-06
-5.04929e-06
-5.41288e-06
7.59416e-06
2.29462e-06
-8.39647e-06
1.09625e-06
7.39862e-06
-3.78437e-06
-5.06613e-06
5.11016e-06
2.17538e-06
-4.86489e-06
4.47947e-07
3.27636e-06
-2.15597e-06
-8.80057e-07
2.61699e-06
-1.66557e-06
-1.84729e-06
3.75993e-06
1.51095e-07
-4.99257e-06
1.9967e-06
5.20519e-06
-4.08433e-06
-4.48408e-06
5.67893e-06
3.10016e-06
-6.50212e-06
-1.42142e-06
6.45813e-06
-1.77041e-07
-5.6195e-06
1.38658e-06
4.18288e-06
-2.01095e-06
-2.41106e-06
1.98245e-06
5.75409e-07
-1.35222e-06
1.09041e-06
2.62511e-07
-2.41981e-06
1.08971e-06
3.32455e-06
-2.48998e-06
-3.79031e-06
3.73816e-06
3.86119e-06
-4.6716e-06
-3.61819e-06
5.17869e-06
3.15676e-06
-5.20377e-06
-2.5671e-06
4.74535e-06
1.92003e-06
-3.84992e-06
-1.25948e-06
2.6036e-06
6.01959e-07
-1.12281e-06
5.77365e-08
-4.55105e-07
-7.36062e-07
1.9816e-06
1.44729e-06
-3.30754e-06
-2.18949e-06
4.29551e-06
2.93255e-06
-4.8342e-06
-3.61114e-06
4.85473e-06
4.12522e-06
-4.34719e-06
-4.35046e-06
3.37455e-06
4.15934e-06
-2.0795e-06
-3.45178e-06
6.79094e-07
2.19129e-06
5.57412e-07
-4.39182e-07
-1.34998e-06
-1.62336e-06
1.46641e-06
3.69697e-06
-7.89873e-07
-5.39963e-06
-6.2007e-07
6.33978e-06
2.49409e-06
-6.22064e-06
-4.36968e-06
4.95476e-06
5.67358e-06
-2.75439e-06
-5.86994e-06
1.54945e-07
4.6486e-06
2.06554e-06
-2.10041e-06
-3.08471e-06
-1.19475e-06
2.3225e-06
4.23961e-06
2.65761e-07
-5.88743e-06
-4.01411e-06
5.26999e-06
7.61696e-06
-2.25507e-06
-9.5161e-06
-2.27411e-06
8.54588e-06
6.53194e-06
-4.61482e-06
-8.44107e-06
-9.24116e-07
6.61708e-06
5.55008e-06
-1.32653e-06
-6.60946e-06
-5.15746e-06
2.80558e-06
9.27415e-06
4.59809e-06
-7.96296e-06
-1.1767e-05
7.84726e-07
1.39913e-05
8.95015e-06
-8.61918e-06
-1.52844e-05
-2.39426e-06
1.30823e-05
1.24397e-05
-2.18555e-06
-1.3833e-05
-1.08144e-05
3.65298e-06
1.57351e-05
1.21869e-05
-6.31443e-06
-2.10677e-05
-1.28243e-05
1.28158e-05
2.6611e-05
9.77082e-06
-2.0342e-05
-2.89734e-05
-5.39875e-06
2.48308e-05
2.96827e-05
4.40059e-06
-2.6356e-05
-3.33863e-05
-8.31565e-06
2.85178e-05
4.243e-05
1.4868e-05
-3.33286e-05
-5.48245e-05
-2.22553e-05
3.80343e-05
6.71749e-05
3.27406e-05
-3.67514e-05
-7.80385e-05
-5.15844e-05
2.39364e-05
8.72601e-05
8.25896e-05
4.397e-06
-9.14514e-05
-0.000123771
-5.193e-05
7.93752e-05
0.000164461
0.000121728
-3.12624e-05
-0.000182397
-0.000209304
-7.46256e-05
0.00014068
0.000286903
0.000243805
8.18485e-06
-0.000284532
-0.00043077
-0.000292543
8.96809e-05
0.000493911
0.000643186
0.000385834
-0.000189155
-0.00077722
-0.00101217
-0.000669421
0.000182192
0.00116252
0.00172817
0.00144048
0.000229749
-0.00149035
-0.00294015
-0.00328809
-0.00203053
0.000717847
0.00413965
0.00688656
0.0074839
0.00486763
-0.00110825
-0.00936402
-0.0175926
-0.022564
-0.0206462
-0.00841883
0.0167446
0.0562304
0.109959
0.17642
0.252939
0.336083
0.422117
0.507412
0.588786
0.663745
0.730609
0.788502
0.83725
0.877217
0.909152
0.934045
0.953004
0.967137
0.977453
0.984818
0.989954
0.993455
0.995804
0.997366
0.998392
0.999041
0.999426
0.999645
0.999779
0.99988
0.999956
0.999994
0.999989
0.999968
0.999964
0.99999
1.00003
1.00004
1.00001
0.999968
0.999957
0.999988
1.00003
1.00005
1.00002
0.999964
0.999936
0.999967
1.00003
1.00008
1.00005
0.999977
0.99991
0.999915
0.999997
1.00009
1.00012
1.00005
0.99992
0.999839
0.99988
1.00003
1.00018
1.00021
1.00008
0.99986
0.999709
0.999754
0.999995
1.00029
1.00043
1.00029
0.999909
0.99951
0.99936
0.999611
1.00018
1.00078
1.00102
1.00067
0.999814
0.998833
0.998273
0.998565
0.999772
1.00149
1.00294
1.00329
1.00204
0.999284
0.995855
0.993108
0.992519
0.995139
1.00111
1.00936
1.01759
1.02257
1.02065
1.00842
0.983249
0.943762
0.890042
0.823589
0.747067
0.663912
0.577873
0.492586
0.411224
0.336264
0.269389
0.211486
0.162743
0.122789
0.0908612
0.0659587
0.0469844
0.0328495
0.0225473
0.0151965
0.0100589
0.00654028
0.0041777
0.00262198
0.00161702
0.000980004
0.0005837
0.000341675
0.000196561
0.00011113
6.17426e-05
3.37073e-05
1.80797e-05
9.52604e-06
4.92943e-06
2.50454e-06
1.24902e-06
6.11145e-07
2.93258e-07
1.37923e-07
6.35334e-08
2.86401e-08
1.26211e-08
5.43006e-09
2.27706e-09
9.28701e-10
3.67345e-10
1.40369e-10
5.15272e-11
1.80163e-11
5.91641e-12
1.77779e-12
4.6092e-13
8.49472e-14
-2.85134e-15
-1.37124e-14
-9.33248e-15
-4.7177e-15
-2.0483e-15
-7.95529e-16
-2.78694e-16
-8.68644e-17
-2.29171e-17
-4.28232e-18
6.80502e-20
5.96739e-19
3.90863e-19
1.84483e-19
7.28462e-20
2.48442e-20
7.1962e-21
1.61125e-21
1.58042e-22
-9.54828e-23
-8.05718e-23
-3.99111e-23
-1.56675e-23
-5.13081e-24
-1.36378e-24
-2.46618e-25
6.89664e-27
3.31737e-26
1.96839e-26
8.25457e-27
2.78116e-27
7.47153e-28
1.35682e-28
-2.90783e-30
-1.70646e-29
-9.87899e-30
-3.97508e-30
-1.25798e-30
-3.02698e-31
-3.94009e-32
1.01013e-32
1.0179e-32
4.80912e-33
1.67926e-33
4.4935e-34
7.78759e-35
-3.38548e-36
-1.01698e-35
-5.3969e-36
-1.97407e-36
-5.44269e-37
-9.9021e-38
1.1892e-39
1.08586e-38
5.87554e-39
2.12408e-39
5.66953e-40
9.46018e-41
-5.6634e-42
-1.25555e-41
-6.21035e-42
-2.09062e-42
-5.04984e-43
-6.33934e-44
1.58634e-44
1.45984e-44
6.16014e-45
1.82415e-45
3.61098e-46
1.31582e-47
-2.77225e-47
-1.56225e-47
-5.43588e-48
-1.32007e-48
-1.6497e-49
3.95299e-50
3.5544e-50
1.4359e-50
3.96698e-51
6.73529e-52
-2.65587e-53
-7.50023e-53
-3.49944e-53
-1.05812e-53
-2.07432e-54
-6.9877e-56
1.52042e-55
8.08583e-56
2.59811e-56
5.47859e-57
3.61484e-58
-3.08231e-58
-1.80572e-58
-5.99015e-59
-1.29785e-59
-9.98313e-61
6.48353e-61
3.94231e-61
1.30977e-61
2.80638e-62
2.02651e-63
-1.43687e-63
-8.44047e-64
-2.72268e-64
-5.55356e-65
-2.90074e-66
3.30288e-66
1.76364e-66
5.35965e-67
9.95416e-68
1.25508e-69
-7.61037e-69
-3.55808e-69
-9.88706e-70
-1.5808e-70
1.19328e-71
1.2859e-71
)
;

boundaryField
{
    sides
    {
        type            zeroGradient;
    }
    empty
    {
        type            empty;
    }
}


// ************************************************************************* //
