/*--------------------------------*- C++ -*----------------------------------*\
| =========                 |                                                 |
| \\      /  F ield         | OpenFOAM: The Open Source CFD Toolbox           |
|  \\    /   O peration     | Version:  2312                                  |
|   \\  /    A nd           | Website:  www.openfoam.com                      |
|    \\/     M anipulation  |                                                 |
\*---------------------------------------------------------------------------*/
FoamFile
{
    version     2.0;
    format      ascii;
    arch        "LSB;label=32;scalar=64";
    class       volScalarField;
    location    "4.8";
    object      T;
}
// * * * * * * * * * * * * * * * * * * * * * * * * * * * * * * * * * * * * * //

dimensions      [0 0 0 1 0 0 0];

internalField   nonuniform List<scalar> 
1000
(
0
0
0
0
0
0
0
0
0
0
0
0
0
0
0
0
0
0
0
0
0
0
0
0
0
0
0
0
0
0
0
0
0
0
0
0
0
0
0
0
0
0
0
0
0
0
0
0
0
0
0
0
0
0
0
0
0
0
0
0
0
0
0
0
0
0
0
0
0
0
0
0
0
0
0
0
0
0
0
0
0
0
0
0
0
0
0
0
0
0
0
0
0
0
0
0
0
0
0
0
0
0
0
0
0
0
0
0
0
0
0
0
0
0
0
0
0
0
0
0
0
0
0
0
0
0
0
0
0
0
0
0
0
0
0
0
0
0
0
0
0
0
0
0
0
0
0
0
0
0
0
0
0
0
0
0
0
0
0
0
0
0
0
0
0
0
0
0
0
0
0
0
0
0
0
0
0
0
0
0
0
0
0
0
0
0
0
0
0
0
0
0
0
0
0
0
0
0
0
0
0
0
0
0
0
0
0
0
0
0
0
0
0
0
0
0
0
0
0
0
0
0
0
0
0
0
0
0
0
0
0
0
0
0
0
0
0
0
0
0
0
0
0
0
0
0
0
0
0
0
0
0
0
0
0
0
0
0
0
0
0
0
0
0
0
0
0
0
0
0
0
0
0
0
0
0
0
0
0
0
0
0
0
0
0
0
0
0
0
0
0
0
0
0
0
0
0
0
0
0
0
0
0
0
0
0
0
0
0
0
0
0
0
0
0
0
0
0
0
0
0
0
0
0
0
0
0
0
0
0
0
0
0
0
0
0
0
0
0
0
0
0
0
0
0
0
0
0
0
0
0
0
0
0
0
0
0
0
0
0
0
0
0
0
0
0
0
0
0
0
0
0
0
0
0
0
0
0
0
0
0
0
0
0
0
0
0
0
0
0
0
0
0
0
0
0
0
0
0
0
0
0
0
0
4.26505e-168
-2.86311e-152
1.72038e-144
-9.78615e-141
-2.08848e-138
-2.0495e-136
-1.16871e-134
-3.48793e-133
4.00002e-132
1.16538e-129
8.13513e-128
3.9211e-126
1.51349e-124
4.95611e-123
1.4203e-121
3.63312e-120
8.41174e-119
1.78133e-117
3.47878e-116
6.30722e-115
1.06756e-113
1.69489e-112
2.53421e-111
3.58123e-110
4.79798e-109
6.1111e-108
7.41792e-107
8.60017e-106
9.54246e-105
1.01514e-103
1.0371e-102
1.01906e-101
9.64391e-101
8.80105e-100
7.75434e-99
6.60309e-98
5.4396e-97
4.33904e-96
3.35419e-95
2.51464e-94
1.8296e-93
1.2927e-92
8.8745e-92
5.92249e-91
3.84382e-90
2.42699e-89
1.49119e-88
8.91736e-88
5.19043e-87
2.94041e-86
1.62089e-85
8.69074e-85
4.52917e-84
2.29183e-83
1.12426e-82
5.33405e-82
2.43908e-81
1.06901e-80
4.4505e-80
1.73181e-79
6.0959e-79
1.78517e-78
3.00885e-78
-1.13081e-77
-1.67597e-76
-1.27638e-75
-7.96865e-75
-4.48512e-74
-2.35997e-73
-1.18176e-72
-5.68926e-72
-2.65006e-71
-1.19948e-70
-5.29165e-70
-2.2805e-69
-9.61744e-69
-3.97442e-68
-1.61121e-67
-6.41341e-67
-2.50852e-66
-9.6477e-66
-3.6505e-65
-1.35964e-64
-4.98686e-64
-1.80194e-63
-6.41686e-63
-2.25279e-62
-7.79954e-62
-2.66378e-61
-8.97691e-61
-2.98588e-60
-9.8049e-60
-3.17942e-59
-1.01833e-58
-3.22229e-58
-1.00757e-57
-3.11394e-57
-9.51408e-57
-2.87431e-56
-8.58806e-56
-2.53827e-55
-7.42233e-55
-2.14773e-54
-6.15077e-54
-1.74364e-53
-4.89359e-53
-1.35987e-52
-3.74214e-52
-1.01987e-51
-2.75302e-51
-7.36125e-51
-1.94985e-50
-5.11664e-50
-1.33021e-49
-3.42629e-49
-8.74391e-49
-2.21093e-48
-5.53909e-48
-1.37499e-47
-3.38194e-47
-8.24212e-47
-1.99034e-46
-4.76258e-46
-1.12927e-45
-2.65343e-45
-6.17877e-45
-1.42596e-44
-3.26187e-44
-7.39644e-44
-1.66276e-43
-3.70638e-43
-8.19321e-43
-1.79646e-42
-3.90775e-42
-8.4346e-42
-1.80685e-41
-3.84226e-41
-8.11226e-41
-1.70084e-40
-3.54174e-40
-7.32569e-40
-1.50517e-39
-3.07208e-39
-6.22825e-39
-1.2541e-38
-2.50756e-38
-4.97746e-38
-9.80517e-38
-1.91611e-37
-3.71278e-37
-7.12957e-37
-1.35599e-36
-2.55269e-36
-4.75319e-36
-8.74753e-36
-1.58979e-35
-2.85073e-35
-5.03848e-35
-8.76769e-35
-1.50024e-34
-2.52049e-34
-4.1505e-34
-6.68477e-34
-1.05026e-33
-1.60417e-33
-2.37123e-33
-3.37057e-33
-4.56399e-33
-5.79856e-33
-6.72633e-33
-6.71353e-33
-4.7824e-33
3.13579e-34
9.68527e-33
2.32463e-32
3.75305e-32
4.19022e-32
1.306e-32
-9.08141e-32
-3.31099e-31
-7.71215e-31
-1.40916e-30
-1.9951e-30
-1.60835e-30
2.23551e-30
1.53453e-29
5.01402e-29
1.31499e-28
3.06723e-28
6.6181e-28
1.34691e-27
2.61439e-27
4.87287e-27
8.75929e-27
1.52276e-26
2.56449e-26
4.18722e-26
6.62871e-26
1.01674e-25
1.50876e-25
2.16057e-25
2.97429e-25
3.91329e-25
4.87709e-25
5.67547e-25
6.01445e-25
5.52213e-25
3.8648e-25
1.03994e-25
-2.01877e-25
-2.32624e-25
7.0484e-25
3.99884e-24
1.21808e-23
2.95502e-23
6.29829e-23
1.22877e-22
2.24096e-22
3.86598e-22
6.35229e-22
9.97774e-22
1.5e-21
2.15587e-21
2.95079e-21
3.81535e-21
4.58735e-21
4.96115e-21
4.4258e-21
2.19828e-21
-2.83412e-21
-1.2137e-20
-2.74772e-20
-5.07382e-20
-8.35234e-20
-1.26454e-19
-1.78062e-19
-2.33186e-19
-2.80855e-19
-3.01707e-19
-2.65237e-19
-1.27362e-19
1.70725e-19
7.01017e-19
1.54246e-18
2.76747e-18
4.41805e-18
6.46867e-18
8.77309e-18
1.09951e-17
1.25264e-17
1.2399e-17
9.19253e-18
9.5924e-19
-1.47932e-17
-4.10044e-17
-8.07448e-17
-1.3652e-16
-2.08992e-16
-2.95011e-16
-3.85253e-16
-4.6239e-16
-5.01265e-16
-4.66922e-16
-2.85844e-16
2.8646e-16
1.7823e-15
4.38722e-15
7.12201e-15
7.62859e-15
-6.40908e-16
-1.96353e-14
-3.54761e-14
-2.67773e-14
2.48735e-14
9.68583e-14
1.10086e-13
3.55367e-15
-2.07094e-13
-3.36731e-13
-1.73246e-13
3.47674e-13
8.76753e-13
7.82202e-13
-2.88226e-13
-1.96309e-12
-2.60333e-12
-8.73199e-13
3.34367e-12
7.11157e-12
5.86048e-12
-2.77497e-12
-1.5576e-11
-2.08087e-11
-8.40667e-12
2.32862e-11
5.54353e-11
5.27093e-11
-4.24509e-12
-1.04651e-10
-1.73275e-10
-1.2127e-10
9.08202e-11
3.88296e-10
5.14656e-10
2.57514e-10
-4.48493e-10
-1.29487e-09
-1.50446e-09
-5.60273e-10
1.65285e-09
4.09868e-09
4.47534e-09
1.49305e-09
-5.18933e-09
-1.2539e-08
-1.39612e-08
-5.64574e-09
1.38471e-08
3.70311e-08
4.52298e-08
2.53756e-08
-2.89569e-08
-1.02225e-07
-1.46523e-07
-1.14542e-07
2.2444e-08
2.48002e-07
4.56062e-07
4.63944e-07
1.88716e-07
-4.24189e-07
-1.20111e-06
-1.67373e-06
-1.39786e-06
-8.24713e-08
2.24989e-06
4.84109e-06
6.06227e-06
4.62527e-06
-3.72696e-07
-8.75714e-06
-1.8058e-05
-2.296e-05
-1.90747e-05
-3.17614e-06
2.55949e-05
6.12043e-05
8.9322e-05
8.97563e-05
5.31845e-05
-3.2594e-05
-0.000162609
-0.000308522
-0.000411017
-0.000402169
-0.000243756
0.000112768
0.000666042
0.00133983
0.0019634
0.00224216
0.00198811
0.000991947
-0.000948148
-0.00388247
-0.00761487
-0.011644
-0.0150507
-0.0164483
-0.015017
-0.00965823
0.00109269
0.0185358
0.043687
0.0771696
0.119129
0.169193
0.226479
0.28966
0.357059
0.426792
0.496906
0.565522
0.630963
0.691844
0.747136
0.796185
0.838703
0.874729
0.904571
0.928738
0.94787
0.962673
0.973864
0.982124
0.988075
0.992254
0.995112
0.997012
0.998237
0.999002
0.999461
0.999727
0.999872
0.999947
0.999982
0.999997
1
1
1
1
1
1
1
1
1
1
1
1
1
1
1
1
1
1
1
1
1
1
1
1
1
1
1
1
0.999998
0.999995
0.999994
0.999995
1
1.00001
1.00002
1.00002
1.00002
1
0.999974
0.999939
0.999911
0.99991
0.999947
1.00003
1.00016
1.00031
1.00041
1.0004
1.00024
0.999887
0.999333
0.99866
0.998037
0.997759
0.998014
0.999012
1.00095
1.00389
1.00762
1.01165
1.01505
1.01644
1.01501
1.00964
0.998877
0.981423
0.956261
0.922768
0.880799
0.830727
0.773434
0.71025
0.642849
0.573117
0.503007
0.434397
0.368963
0.30809
0.252806
0.203766
0.161256
0.125238
0.095403
0.0712421
0.0521149
0.0373157
0.0261282
0.0178698
0.011921
0.0077433
0.00488651
0.00298729
0.00176236
0.000998005
0.000538318
0.000273291
0.000127973
5.31468e-05
1.77875e-05
3.33291e-06
5.39693e-09
4.8414e-17
4.80794e-17
4.72796e-17
4.60428e-17
4.44412e-17
4.25503e-17
4.04399e-17
3.81727e-17
3.58044e-17
3.33835e-17
3.09517e-17
2.85445e-17
2.6191e-17
2.39149e-17
2.17348e-17
1.96646e-17
1.77144e-17
1.58904e-17
1.4196e-17
1.26318e-17
1.11963e-17
9.88639e-18
8.69741e-18
7.62368e-18
6.65875e-18
5.79567e-18
5.02718e-18
4.34591e-18
3.74452e-18
3.21584e-18
2.75292e-18
2.34919e-18
1.99841e-18
1.69478e-18
1.43291e-18
1.20788e-18
1.01517e-18
8.50711e-19
7.10837e-19
5.92265e-19
4.92079e-19
4.077e-19
3.36859e-19
2.77567e-19
2.28095e-19
1.8694e-19
1.52807e-19
1.24579e-19
1.01304e-19
8.21662e-20
6.64753e-20
5.3646e-20
4.31854e-20
3.46791e-20
2.77806e-20
2.22008e-20
1.76995e-20
1.40775e-20
1.11705e-20
8.84326e-21
6.98481e-21
5.50438e-21
4.32795e-21
3.39535e-21
2.65781e-21
2.07592e-21
1.61789e-21
1.2582e-21
9.76384e-22
7.5608e-22
5.8425e-22
4.50527e-22
3.46689e-22
2.66234e-22
2.04032e-22
1.56045e-22
1.19103e-22
9.07244e-23
6.89698e-23
5.23279e-23
3.96233e-23
2.99445e-23
2.25859e-23
1.70026e-23
1.27748e-23
9.57982e-24
7.1702e-24
5.35647e-24
)
;

boundaryField
{
    sides
    {
        type            zeroGradient;
    }
    empty
    {
        type            empty;
    }
}


// ************************************************************************* //
