/*--------------------------------*- C++ -*----------------------------------*\
| =========                 |                                                 |
| \\      /  F ield         | OpenFOAM: The Open Source CFD Toolbox           |
|  \\    /   O peration     | Version:  2312                                  |
|   \\  /    A nd           | Website:  www.openfoam.com                      |
|    \\/     M anipulation  |                                                 |
\*---------------------------------------------------------------------------*/
FoamFile
{
    version     2.0;
    format      ascii;
    arch        "LSB;label=32;scalar=64";
    class       volScalarField;
    location    "1.1";
    object      T;
}
// * * * * * * * * * * * * * * * * * * * * * * * * * * * * * * * * * * * * * //

dimensions      [0 0 0 1 0 0 0];

internalField   nonuniform List<scalar> 
1000
(
0
0
0
0
0
0
0
0
0
0
0
0
0
0
0
0
0
0
0
0
0
0
0
0
0
0
0
0
0
0
0
0
0
0
0
0
0
0
0
0
0
0
0
0
0
0
0
0
0
0
0
0
0
0
0
0
0
0
0
0
0
0
0
0
0
0
0
0
0
0
0
0
0
0
0
0
0
0
0
0
0
0
0
0
0
0
0
0
0
0
0
0
0
0
0
0
0
0
0
0
0
0
0
0
0
0
0
0
0
0
0
0
0
0
0
0
0
0
0
-3.95253e-323
1.00789e-321
-2.52122e-320
6.3319e-319
-1.58361e-317
3.94308e-316
-9.77437e-315
2.41215e-313
-5.92622e-312
1.44946e-310
-3.52926e-309
8.55477e-308
-2.06431e-306
4.95885e-305
-1.18583e-303
2.82288e-302
-6.68943e-301
1.57801e-299
-3.7055e-298
8.66159e-297
-2.01539e-295
4.66794e-294
-1.0762e-292
2.46978e-291
-5.64176e-290
1.2828e-288
-2.90328e-287
6.54027e-286
-1.46649e-284
3.27288e-283
-7.27021e-282
1.6074e-280
-3.5372e-279
7.74719e-278
-1.68879e-276
3.66395e-275
-7.91151e-274
1.7002e-272
-3.63638e-271
7.74034e-270
-1.63971e-268
3.4569e-267
-7.25292e-266
1.5144e-264
-3.14676e-263
6.50695e-262
-1.33899e-260
2.74193e-259
-5.58743e-258
1.13302e-256
-2.28625e-255
4.5906e-254
-9.17208e-253
1.82353e-251
-3.60744e-250
7.10102e-249
-1.39082e-247
2.71048e-246
-5.2558e-245
1.01401e-243
-1.94649e-242
3.71758e-241
-7.06418e-240
1.33552e-238
-2.512e-237
4.70071e-236
-8.75133e-235
1.62086e-233
-2.98658e-232
5.47455e-231
-9.9831e-230
1.81099e-228
-3.2681e-227
5.86671e-226
-1.04763e-224
1.86093e-223
-3.28813e-222
5.77913e-221
-1.01032e-219
1.75686e-218
-3.03867e-217
5.22748e-216
-8.94454e-215
1.5222e-213
-2.57647e-212
4.33721e-211
-7.2614e-210
1.20906e-208
-2.00208e-207
3.29699e-206
-5.3994e-205
8.7934e-204
-1.42411e-202
2.29349e-201
-3.6729e-200
5.84886e-199
-9.26133e-198
1.45817e-196
-2.28279e-195
3.55334e-194
-5.49937e-193
8.46222e-192
-1.29462e-190
1.96914e-189
-2.97767e-188
4.47647e-187
-6.69024e-186
9.93996e-185
-1.4681e-183
2.15548e-182
-3.14585e-181
4.56384e-180
-6.58124e-179
9.43323e-178
-1.34393e-176
1.90304e-175
-2.67832e-174
3.74634e-173
-5.208e-172
7.19523e-171
-9.87903e-170
1.34794e-168
-1.82767e-167
2.46256e-166
-3.29704e-165
4.38631e-164
-5.79825e-163
7.61564e-162
-9.93834e-161
1.28857e-159
-1.65986e-158
2.12419e-157
-2.70061e-156
3.41084e-155
-4.27934e-154
5.3333e-153
-6.60243e-152
8.11868e-151
-9.91576e-150
1.20285e-148
-1.44919e-147
1.73401e-146
-2.06052e-145
2.43156e-144
-2.84943e-143
3.31574e-142
-3.83121e-141
4.39549e-140
-5.00699e-139
5.66276e-138
-6.35834e-137
7.08769e-136
-7.84319e-135
8.6157e-134
-9.39459e-133
1.0168e-131
-1.09231e-130
1.16463e-129
-1.23237e-128
1.29415e-127
-1.34865e-126
1.39465e-125
-1.43105e-124
1.45697e-123
-1.47174e-122
1.47493e-121
-1.46639e-120
1.44624e-119
-1.41489e-118
1.37299e-117
-1.32146e-116
1.26141e-115
-1.19412e-114
1.12098e-113
-1.04349e-112
9.63125e-112
-8.8137e-111
7.99622e-110
-7.19172e-109
6.41169e-108
-5.66597e-107
4.96255e-106
-4.30759e-105
3.70535e-104
-3.15832e-103
2.66735e-102
-2.23186e-101
1.85004e-100
-1.5191e-99
1.2355e-98
-9.95207e-98
7.93887e-97
-6.27102e-96
4.90467e-95
-3.79779e-94
2.91111e-93
-2.20875e-92
1.65862e-91
-1.23258e-90
9.06362e-90
-6.59408e-89
4.74592e-88
-3.37869e-87
2.37893e-86
-1.65639e-85
1.14034e-84
-7.76124e-84
5.22148e-83
-3.47181e-82
2.28112e-81
-1.48082e-80
9.49608e-80
-6.01449e-79
3.76171e-78
-2.32286e-77
1.41588e-76
-8.51739e-76
5.05556e-75
-2.96017e-74
1.70941e-73
-9.73314e-73
5.46288e-72
-3.02159e-71
1.64653e-70
-8.83667e-70
4.66935e-69
-2.42842e-68
1.2426e-67
-6.2534e-67
3.0938e-66
-1.50408e-65
7.18197e-65
-3.36657e-64
1.54831e-63
-6.98222e-63
3.08534e-62
-1.33497e-61
5.65123e-61
-2.33845e-60
9.44903e-60
-3.72408e-59
1.42973e-58
-5.33861e-58
1.93537e-57
-6.79725e-57
2.30676e-56
-7.53973e-56
2.36361e-55
-7.06685e-55
1.99933e-54
-5.28938e-54
1.28312e-53
-2.749e-53
4.74346e-53
-4.38545e-53
-1.07304e-52
7.87635e-52
-2.90481e-51
7.97377e-51
-1.65902e-50
2.10576e-50
1.6331e-50
-2.05995e-49
7.62671e-49
-1.84321e-48
2.65648e-48
1.05941e-48
-2.11056e-47
7.57737e-47
-1.58183e-46
1.21813e-46
5.39044e-46
-2.7387e-45
6.51624e-45
-6.09075e-45
-1.91217e-44
1.03125e-43
-2.29633e-43
1.27399e-43
9.89029e-43
-3.92977e-42
6.29964e-42
4.41306e-42
-5.12457e-41
1.24844e-40
-5.47883e-41
-5.88852e-40
1.96097e-39
-1.8468e-39
-6.65097e-39
2.81639e-38
-3.27295e-38
-8.29101e-38
3.91653e-37
-4.4867e-37
-1.22164e-36
5.33612e-36
-4.73925e-36
-2.0296e-35
6.92614e-35
-2.55336e-35
-3.40428e-34
7.95317e-34
4.28289e-34
-5.20746e-33
6.70863e-33
1.74894e-32
-6.55407e-32
7.30709e-33
3.47366e-31
-5.48735e-31
-1.11148e-30
4.4704e-30
1.78464e-31
-2.41872e-29
2.77772e-29
9.7145e-29
-2.5178e-28
-2.54756e-28
1.56879e-27
-1.00672e-28
-8.08258e-27
7.0233e-27
3.6462e-26
-6.14756e-26
-1.47179e-25
3.99787e-25
5.33329e-25
-2.27549e-24
-1.71173e-24
1.20301e-23
4.68784e-24
-6.09296e-23
-1.01772e-23
3.01131e-22
1.762e-23
-1.4674e-21
-8.36111e-23
7.07413e-21
1.13677e-21
-3.36185e-20
-1.24197e-20
1.55802e-19
1.07221e-19
-6.90624e-19
-7.87495e-19
2.83313e-18
5.10602e-18
-1.00819e-17
-2.95889e-17
2.58267e-17
1.52373e-16
2.30146e-18
-6.7885e-16
-6.06424e-16
2.43614e-15
5.05068e-15
-5.44072e-15
-2.78163e-14
-7.95224e-15
1.10031e-13
1.69347e-13
-2.49904e-13
-1.04644e-12
-3.96793e-13
3.79041e-12
7.24697e-12
-4.51055e-12
-3.67159e-11
-4.14016e-11
7.86493e-11
3.01328e-10
2.21344e-10
-7.86751e-10
-2.3384e-09
-1.42139e-09
6.24181e-09
1.80193e-08
1.33844e-08
-3.98355e-08
-1.36068e-07
-1.5178e-07
1.60112e-07
9.23117e-07
1.58432e-06
4.70777e-07
-4.49862e-06
-1.28438e-05
-1.67721e-05
1.2968e-06
6.10072e-05
0.000158487
0.000225021
9.32018e-05
-0.000480541
-0.00167497
-0.00330317
-0.00437636
-0.00265622
0.00559043
0.0253977
0.0623201
0.121118
0.204205
0.310355
0.434151
0.566527
0.696351
0.812669
0.906947
0.974666
1.01583
1.03433
1.03646
1.02915
1.01844
1.00851
1.0015
0.997792
0.996731
0.997238
0.998323
0.999336
0.999989
1.00027
1.00029
1.0002
1.00009
1.00001
0.999977
0.999973
0.999982
0.999993
1
1
1
1
1
1
1
1
1
1
1
1
1
1
1
1
1
1
1
1
1
1
1
1
1
1
1
1
1
1
1
1
1
1
1
1
1
1
1
1
1
1
1
1
1
1
1
1
1
1
0.999999
0.999998
1
1
1.00001
1.00002
0.999999
0.999939
0.999842
0.999775
0.999907
1.00048
1.00167
1.0033
1.00438
1.00266
0.99441
0.974602
0.93768
0.878882
0.795795
0.689645
0.565849
0.433473
0.303649
0.187331
0.0930535
0.0253335
-0.0158316
-0.0343289
-0.0364572
-0.0291505
-0.0184386
-0.00851214
-0.00149541
0.00220812
0.00326869
0.00276227
0.00167665
0.000664254
1.05208e-05
-0.000268462
-0.000290273
-0.000195243
-8.55726e-05
-1.01919e-05
2.30425e-05
2.68036e-05
1.75803e-05
7.03894e-06
2.74826e-07
-2.28882e-06
-2.23291e-06
-1.25143e-06
-3.63508e-07
1.02112e-07
2.13974e-07
1.54132e-07
6.34672e-08
4.35793e-09
-1.67365e-08
-1.54859e-08
-7.64452e-09
-1.4925e-09
1.13035e-09
1.36719e-09
7.54735e-10
1.92032e-10
-7.1019e-11
-1.11018e-10
-6.50729e-11
-1.80622e-11
4.66498e-12
8.5258e-12
5.04195e-12
1.38203e-12
-3.54648e-13
-6.26084e-13
-3.54704e-13
-8.77718e-14
3.03221e-14
4.3772e-14
2.25987e-14
4.47572e-15
-2.60357e-15
-2.87017e-15
-1.28579e-15
-1.56989e-16
2.06587e-16
1.72926e-16
6.34778e-17
3.25888e-19
-1.45821e-17
-9.34668e-18
-2.55864e-18
5.20065e-19
8.99857e-19
4.39517e-19
7.01012e-20
-5.39199e-20
-4.78833e-20
-1.70878e-20
8.49331e-23
3.688e-21
2.15146e-21
4.8412e-22
-1.66467e-22
-1.95901e-22
-7.8117e-23
-4.63148e-24
1.31431e-23
8.31163e-24
2.02712e-24
-5.15784e-25
-6.81494e-25
-2.7304e-25
-1.70605e-26
4.31208e-26
2.6442e-26
5.98496e-27
-1.78338e-27
-2.05794e-27
-7.50594e-28
-1.34645e-29
1.30096e-28
6.95813e-29
1.22621e-29
-6.19778e-30
-5.32432e-30
-1.59122e-30
1.36019e-31
3.45242e-31
1.47721e-31
1.34758e-32
-1.86445e-32
-1.13891e-32
-2.38129e-33
7.60764e-34
7.62368e-34
2.38199e-34
-1.23112e-35
-4.47975e-35
-1.90683e-35
-1.68161e-36
2.28069e-36
1.32491e-36
2.48543e-37
-9.50967e-38
-8.23731e-38
-2.25673e-38
2.57464e-39
4.6353e-39
1.67908e-39
4.13757e-41
-2.35979e-40
-1.10276e-40
-1.30564e-41
1.07164e-41
6.59113e-42
1.27397e-42
-4.16298e-43
-3.63905e-43
-9.4994e-44
1.20503e-44
1.86968e-44
6.15257e-45
-7.04749e-47
-8.96116e-46
-3.62213e-46
-2.48456e-47
3.99849e-47
1.98097e-47
2.59739e-48
-1.64772e-48
-1.01892e-48
-1.87849e-49
6.15307e-50
4.96675e-50
1.15673e-50
-1.98896e-51
-2.30611e-51
-6.45011e-52
4.81758e-53
1.02343e-52
3.34725e-53
-2.03708e-55
-4.35125e-54
-1.64084e-54
-7.60089e-56
1.77492e-55
7.66855e-56
6.80078e-57
-6.95102e-57
-3.43838e-57
-4.27654e-58
2.61331e-58
1.48586e-58
2.30905e-59
-9.42318e-60
-6.21043e-60
-1.13651e-60
3.25211e-61
2.51781e-61
5.23621e-62
-1.07024e-62
-9.92473e-63
-2.29065e-63
3.33717e-64
3.81161e-64
9.59802e-65
-9.75002e-66
-1.42885e-65
-3.87434e-66
2.61309e-67
5.23677e-67
1.51279e-67
-6.13079e-69
-1.87928e-68
-5.73109e-69
1.09459e-70
6.61241e-70
2.11139e-70
-4.29346e-73
-2.28405e-71
-7.57791e-72
-8.66801e-74
7.75365e-73
2.65336e-73
5.79828e-75
-2.5893e-74
-9.07393e-75
-2.68503e-76
8.51305e-76
3.03342e-76
1.05954e-77
-2.7574e-77
-9.91983e-78
-3.77652e-79
8.80312e-79
3.17495e-79
1.24338e-80
-2.77094e-80
-9.94924e-81
-3.81159e-82
8.60067e-82
3.05324e-82
1.0865e-83
-2.63233e-83
-9.17691e-84
-2.84717e-85
7.9428e-85
2.70138e-85
6.65561e-87
-2.36213e-86
-7.78692e-87
-1.27662e-88
6.92076e-88
2.19748e-88
1.36802e-90
-1.9967e-89
-6.06862e-90
3.63546e-92
5.66945e-91
1.63919e-91
-3.35095e-93
-1.58337e-92
-4.32749e-93
1.61898e-94
4.34682e-94
1.11562e-94
-6.39306e-96
-1.17227e-95
-2.80525e-96
2.26422e-97
3.10366e-97
6.86975e-98
-7.45393e-99
-8.06157e-99
-1.63518e-99
2.32141e-100
2.0529e-100
3.77294e-101
-6.90796e-102
-5.12164e-102
-8.40716e-103
1.97633e-103
1.25088e-103
1.79919e-104
-5.45815e-105
-2.98835e-105
-3.66616e-106
1.45919e-106
6.97676e-107
7.00937e-108
-3.7836e-108
-1.5901e-108
-1.22226e-109
9.52831e-110
3.53342e-110
1.81711e-111
-2.33268e-111
-7.64355e-112
-1.79661e-113
5.55508e-113
1.60647e-113
-1.25742e-115
-1.28729e-114
-3.27193e-115
1.43843e-116
2.90311e-116
6.43497e-117
-5.60398e-118
-6.37093e-118
-1.21583e-118
1.7123e-119
1.36002e-119
2.1896e-120
-4.63652e-121
-2.82246e-121
-3.70957e-122
1.16096e-122
5.68922e-123
5.76871e-124
-2.74174e-124
-1.11236e-124
-7.79052e-126
6.17178e-126
2.10569e-126
7.63132e-128
-1.33244e-127
-3.84895e-128
5.89742e-131
2.76916e-129
6.76707e-130
-3.08871e-131
-5.55218e-131
-1.13766e-131
1.13792e-132
1.07518e-132
1.81161e-133
-3.11477e-134
-2.01154e-134
-2.68746e-135
7.43582e-136
3.634e-136
3.59212e-137
-1.6289e-137
-6.33102e-138
-3.97438e-139
3.34859e-139
1.0611e-139
2.50397e-141
-6.53507e-141
-1.70429e-141
3.62081e-143
1.21853e-142
2.60669e-143
-1.9792e-144
-2.17847e-144
-3.75652e-145
5.56819e-146
3.74023e-146
5.00234e-147
-1.27614e-147
-6.1681e-148
-5.90616e-149
2.61594e-149
9.75827e-150
5.50654e-151
-4.9673e-151
-1.47675e-151
-1.96553e-153
8.8827e-153
2.12653e-153
-7.91615e-155
-1.5088e-154
-2.88723e-155
2.93046e-156
2.44516e-156
3.63417e-157
-6.99965e-158
-3.78747e-158
-4.09538e-159
1.41e-159
5.60566e-160
3.77126e-161
-2.5678e-161
-7.90829e-162
-1.83903e-163
4.34789e-163
1.05789e-163
-2.94547e-165
-6.93784e-165
-1.32874e-165
1.23247e-166
1.05035e-166
1.53642e-167
-3.1045e-168
)
;

boundaryField
{
    sides
    {
        type            zeroGradient;
    }
    empty
    {
        type            empty;
    }
}


// ************************************************************************* //
