/*--------------------------------*- C++ -*----------------------------------*\
| =========                 |                                                 |
| \\      /  F ield         | OpenFOAM: The Open Source CFD Toolbox           |
|  \\    /   O peration     | Version:  2312                                  |
|   \\  /    A nd           | Website:  www.openfoam.com                      |
|    \\/     M anipulation  |                                                 |
\*---------------------------------------------------------------------------*/
FoamFile
{
    version     2.0;
    format      ascii;
    arch        "LSB;label=32;scalar=64";
    class       volScalarField;
    location    "2.3";
    object      T;
}
// * * * * * * * * * * * * * * * * * * * * * * * * * * * * * * * * * * * * * //

dimensions      [0 0 0 1 0 0 0];

internalField   nonuniform List<scalar> 
1000
(
3.80065e-11
3.82142e-11
3.87875e-11
3.97311e-11
4.10535e-11
4.2766e-11
4.48837e-11
4.74249e-11
5.04116e-11
5.38698e-11
5.78293e-11
6.23243e-11
6.73934e-11
7.30801e-11
7.9433e-11
8.65063e-11
9.43599e-11
1.0306e-10
1.12681e-10
1.23303e-10
1.35015e-10
1.47914e-10
1.62108e-10
1.77714e-10
1.9486e-10
2.13687e-10
2.34349e-10
2.57013e-10
2.81862e-10
3.09097e-10
3.38936e-10
3.71617e-10
4.07399e-10
4.46565e-10
4.89422e-10
5.36308e-10
5.87586e-10
6.43654e-10
7.04944e-10
7.71928e-10
8.45117e-10
9.25067e-10
1.01238e-09
1.10772e-09
1.2118e-09
1.32539e-09
1.44934e-09
1.58456e-09
1.73204e-09
1.89287e-09
2.0682e-09
2.25932e-09
2.46759e-09
2.6945e-09
2.94168e-09
3.21087e-09
3.50398e-09
3.82305e-09
4.17032e-09
4.54819e-09
4.95928e-09
5.40641e-09
5.89264e-09
6.42128e-09
6.99589e-09
7.62036e-09
8.29884e-09
9.03588e-09
9.83634e-09
1.07055e-08
1.1649e-08
1.26731e-08
1.37844e-08
1.49901e-08
1.62978e-08
1.77159e-08
1.92535e-08
2.09201e-08
2.27264e-08
2.46835e-08
2.68036e-08
2.90998e-08
3.15862e-08
3.4278e-08
3.71915e-08
4.03443e-08
4.37553e-08
4.74449e-08
5.14349e-08
5.57491e-08
6.04126e-08
6.54527e-08
7.08987e-08
7.67819e-08
8.31361e-08
8.99976e-08
9.74053e-08
1.05401e-07
1.14029e-07
1.23339e-07
1.33381e-07
1.4421e-07
1.55887e-07
1.68474e-07
1.82041e-07
1.96659e-07
2.12407e-07
2.29368e-07
2.47633e-07
2.67298e-07
2.88464e-07
3.11243e-07
3.3575e-07
3.62113e-07
3.90465e-07
4.2095e-07
4.53722e-07
4.88944e-07
5.26791e-07
5.67451e-07
6.11124e-07
6.58021e-07
7.08372e-07
7.62418e-07
8.20418e-07
8.82649e-07
9.49404e-07
1.021e-06
1.09776e-06
1.18006e-06
1.26826e-06
1.36277e-06
1.46403e-06
1.57248e-06
1.68863e-06
1.81297e-06
1.94607e-06
2.08851e-06
2.24092e-06
2.40395e-06
2.57832e-06
2.76476e-06
2.96407e-06
3.17709e-06
3.40473e-06
3.64792e-06
3.90768e-06
4.18508e-06
4.48124e-06
4.79738e-06
5.13476e-06
5.49473e-06
5.87874e-06
6.28828e-06
6.72498e-06
7.19052e-06
7.68671e-06
8.21545e-06
8.77875e-06
9.37875e-06
1.00177e-05
1.0698e-05
1.14221e-05
1.21927e-05
1.30127e-05
1.3885e-05
1.48126e-05
1.5799e-05
1.68477e-05
1.79622e-05
1.91466e-05
2.04048e-05
2.17413e-05
2.31606e-05
2.46674e-05
2.62669e-05
2.79644e-05
2.97655e-05
3.16761e-05
3.37024e-05
3.58509e-05
3.81287e-05
4.05428e-05
4.3101e-05
4.58112e-05
4.86818e-05
5.17218e-05
5.49403e-05
5.83471e-05
6.19526e-05
6.57673e-05
6.98027e-05
7.40705e-05
7.85832e-05
8.33538e-05
8.83959e-05
9.37238e-05
9.93526e-05
0.000105298
0.000111576
0.000118205
0.000125201
0.000132585
0.000140376
0.000148594
0.000157261
0.000166399
0.000176033
0.000186187
0.000196886
0.000208157
0.000220029
0.00023253
0.000245692
0.000259546
0.000274126
0.000289465
0.000305601
0.00032257
0.000340412
0.000359169
0.000378881
0.000399595
0.000421355
0.00044421
0.000468209
0.000493405
0.000519851
0.000547604
0.000576721
0.000607263
0.000639293
0.000672876
0.00070808
0.000744975
0.000783633
0.00082413
0.000866545
0.000910959
0.000957455
0.00100612
0.00105705
0.00111032
0.00116605
0.00122433
0.00128526
0.00134895
0.00141552
0.00148506
0.00155771
0.00163359
0.00171281
0.00179552
0.00188184
0.00197191
0.00206587
0.00216388
0.00226609
0.00237264
0.0024837
0.00259945
0.00272003
0.00284564
0.00297646
0.00311266
0.00325444
0.003402
0.00355553
0.00371525
0.00388137
0.0040541
0.00423367
0.00442032
0.00461426
0.00481576
0.00502504
0.00524238
0.00546802
0.00570224
0.0059453
0.00619749
0.00645909
0.00673038
0.00701168
0.00730328
0.00760549
0.00791863
0.00824302
0.00857899
0.00892689
0.00928705
0.00965982
0.0100456
0.0104446
0.0108574
0.0112843
0.0117256
0.0121817
0.0126531
0.0131401
0.0136432
0.0141628
0.0146992
0.0152529
0.0158244
0.016414
0.0170222
0.0176496
0.0182964
0.0189632
0.0196504
0.0203585
0.021088
0.0218393
0.022613
0.0234094
0.0242292
0.0250728
0.0259406
0.0268332
0.0277511
0.0286948
0.0296648
0.0306615
0.0316856
0.0327374
0.0338176
0.0349266
0.0360649
0.037233
0.0384316
0.0396609
0.0409216
0.0422142
0.0435392
0.044897
0.0462881
0.0477131
0.0491725
0.0506666
0.052196
0.0537612
0.0553626
0.0570006
0.0586758
0.0603885
0.0621393
0.0639284
0.0657563
0.0676235
0.0695303
0.0714771
0.0734643
0.0754922
0.0775611
0.0796714
0.0818235
0.0840175
0.0862538
0.0885327
0.0908543
0.093219
0.0956269
0.0980783
0.100573
0.103112
0.105695
0.108321
0.110992
0.113707
0.116466
0.119269
0.122117
0.125009
0.127945
0.130925
0.133949
0.137017
0.140128
0.143283
0.146482
0.149723
0.153007
0.156334
0.159703
0.163114
0.166566
0.170059
0.173592
0.177166
0.180779
0.184431
0.188121
0.191849
0.195615
0.199416
0.203254
0.207127
0.211033
0.214973
0.218946
0.222951
0.226986
0.231051
0.235145
0.239267
0.243415
0.24759
0.251789
0.256011
0.260256
0.264522
0.268809
0.273113
0.277435
0.281774
0.286126
0.290493
0.294871
0.29926
0.303658
0.308063
0.312475
0.316891
0.32131
0.32573
0.330151
0.33457
0.338985
0.343395
0.347799
0.352194
0.356579
0.360952
0.365312
0.369656
0.373984
0.378292
0.38258
0.386845
0.391087
0.395302
0.39949
0.403647
0.407774
0.411867
0.415926
0.419947
0.42393
0.427872
0.431773
0.435629
0.439439
0.443202
0.446915
0.450578
0.454188
0.457743
0.461242
0.464683
0.468064
0.471385
0.474642
0.477835
0.480962
0.484022
0.487012
0.489932
0.49278
0.495555
0.498255
0.500878
0.503424
0.505891
0.508278
0.510583
0.512806
0.514946
0.517
0.518969
0.520851
0.522645
0.52435
0.525966
0.52749
0.528924
0.530265
0.531514
0.532669
0.53373
0.534697
0.535568
0.536344
0.537023
0.537606
0.538093
0.538482
0.538774
0.538969
0.539067
0.539067
0.538969
0.538774
0.538482
0.538093
0.537606
0.537023
0.536344
0.535568
0.534697
0.53373
0.532669
0.531514
0.530265
0.528924
0.52749
0.525966
0.52435
0.522645
0.520851
0.518969
0.517
0.514946
0.512806
0.510583
0.508278
0.505891
0.503424
0.500878
0.498255
0.495555
0.49278
0.489932
0.487012
0.484022
0.480962
0.477835
0.474642
0.471385
0.468064
0.464683
0.461242
0.457743
0.454188
0.450578
0.446915
0.443202
0.439439
0.435629
0.431773
0.427872
0.42393
0.419947
0.415926
0.411867
0.407774
0.403647
0.39949
0.395302
0.391087
0.386845
0.38258
0.378292
0.373984
0.369656
0.365312
0.360952
0.356579
0.352194
0.347799
0.343395
0.338985
0.33457
0.330151
0.32573
0.32131
0.316891
0.312475
0.308063
0.303658
0.29926
0.294871
0.290493
0.286126
0.281774
0.277435
0.273113
0.268809
0.264522
0.260256
0.256011
0.251789
0.24759
0.243415
0.239267
0.235145
0.231051
0.226986
0.222951
0.218946
0.214973
0.211033
0.207127
0.203254
0.199416
0.195615
0.191849
0.188121
0.184431
0.180779
0.177166
0.173592
0.170059
0.166566
0.163114
0.159703
0.156334
0.153007
0.149723
0.146482
0.143283
0.140128
0.137017
0.133949
0.130925
0.127945
0.125009
0.122117
0.119269
0.116466
0.113707
0.110992
0.108321
0.105695
0.103112
0.100573
0.0980783
0.0956269
0.093219
0.0908543
0.0885327
0.0862538
0.0840175
0.0818235
0.0796714
0.0775611
0.0754922
0.0734643
0.0714771
0.0695303
0.0676235
0.0657563
0.0639284
0.0621393
0.0603885
0.0586758
0.0570006
0.0553626
0.0537612
0.052196
0.0506666
0.0491725
0.0477131
0.0462881
0.044897
0.0435392
0.0422142
0.0409216
0.0396609
0.0384316
0.037233
0.0360649
0.0349266
0.0338176
0.0327374
0.0316856
0.0306615
0.0296648
0.0286948
0.0277511
0.0268332
0.0259406
0.0250728
0.0242292
0.0234094
0.022613
0.0218393
0.021088
0.0203585
0.0196504
0.0189632
0.0182964
0.0176496
0.0170222
0.016414
0.0158244
0.0152529
0.0146992
0.0141628
0.0136432
0.0131401
0.0126531
0.0121817
0.0117256
0.0112843
0.0108574
0.0104446
0.0100456
0.00965982
0.00928705
0.00892689
0.00857899
0.00824302
0.00791863
0.00760549
0.00730328
0.00701168
0.00673038
0.00645909
0.00619749
0.0059453
0.00570224
0.00546802
0.00524238
0.00502504
0.00481576
0.00461426
0.00442032
0.00423367
0.0040541
0.00388137
0.00371525
0.00355553
0.003402
0.00325444
0.00311266
0.00297646
0.00284564
0.00272003
0.00259945
0.0024837
0.00237264
0.00226609
0.00216388
0.00206587
0.00197191
0.00188184
0.00179552
0.00171281
0.00163359
0.00155771
0.00148506
0.00141552
0.00134895
0.00128526
0.00122433
0.00116605
0.00111032
0.00105705
0.00100612
0.000957455
0.000910959
0.000866545
0.00082413
0.000783633
0.000744975
0.00070808
0.000672876
0.000639293
0.000607263
0.000576721
0.000547604
0.000519851
0.000493405
0.000468209
0.00044421
0.000421355
0.000399595
0.000378881
0.000359169
0.000340412
0.00032257
0.000305601
0.000289465
0.000274126
0.000259546
0.000245692
0.00023253
0.000220029
0.000208157
0.000196886
0.000186187
0.000176033
0.000166399
0.000157261
0.000148594
0.000140376
0.000132585
0.000125201
0.000118205
0.000111576
0.000105298
9.93526e-05
9.37238e-05
8.83959e-05
8.33538e-05
7.85832e-05
7.40705e-05
6.98027e-05
6.57673e-05
6.19526e-05
5.83471e-05
5.49403e-05
5.17218e-05
4.86818e-05
4.58112e-05
4.3101e-05
4.05428e-05
3.81287e-05
3.58509e-05
3.37024e-05
3.16761e-05
2.97655e-05
2.79644e-05
2.62669e-05
2.46674e-05
2.31606e-05
2.17413e-05
2.04048e-05
1.91466e-05
1.79622e-05
1.68477e-05
1.5799e-05
1.48126e-05
1.3885e-05
1.30127e-05
1.21927e-05
1.14221e-05
1.0698e-05
1.00177e-05
9.37875e-06
8.77875e-06
8.21545e-06
7.68671e-06
7.19052e-06
6.72498e-06
6.28828e-06
5.87874e-06
5.49473e-06
5.13476e-06
4.79738e-06
4.48124e-06
4.18508e-06
3.90768e-06
3.64792e-06
3.40473e-06
3.17709e-06
2.96407e-06
2.76476e-06
2.57832e-06
2.40395e-06
2.24092e-06
2.08851e-06
1.94607e-06
1.81297e-06
1.68863e-06
1.57248e-06
1.46403e-06
1.36277e-06
1.26826e-06
1.18006e-06
1.09776e-06
1.021e-06
9.49404e-07
8.82649e-07
8.20418e-07
7.62418e-07
7.08372e-07
6.58021e-07
6.11124e-07
5.67451e-07
5.26791e-07
4.88944e-07
4.53722e-07
4.2095e-07
3.90465e-07
3.62113e-07
3.3575e-07
3.11243e-07
2.88464e-07
2.67298e-07
2.47633e-07
2.29368e-07
2.12407e-07
1.96659e-07
1.82041e-07
1.68474e-07
1.55887e-07
1.4421e-07
1.33381e-07
1.23339e-07
1.14029e-07
1.05401e-07
9.74053e-08
8.99976e-08
8.31361e-08
7.67819e-08
7.08987e-08
6.54527e-08
6.04126e-08
5.57491e-08
5.14349e-08
4.74449e-08
4.37553e-08
4.03443e-08
3.71915e-08
3.4278e-08
3.15862e-08
2.90998e-08
2.68036e-08
2.46835e-08
2.27264e-08
2.09201e-08
1.92535e-08
1.77159e-08
1.62978e-08
1.49901e-08
1.37844e-08
1.26731e-08
1.1649e-08
1.07055e-08
9.83634e-09
9.03588e-09
8.29884e-09
7.62036e-09
6.99589e-09
6.42128e-09
5.89264e-09
5.40641e-09
4.95928e-09
4.54819e-09
4.17032e-09
3.82305e-09
3.50398e-09
3.21087e-09
2.94168e-09
2.6945e-09
2.46759e-09
2.25932e-09
2.0682e-09
1.89287e-09
1.73204e-09
1.58456e-09
1.44934e-09
1.32539e-09
1.2118e-09
1.10772e-09
1.01238e-09
9.25067e-10
8.45117e-10
7.71928e-10
7.04944e-10
6.43654e-10
5.87586e-10
5.36308e-10
4.89422e-10
4.46565e-10
4.07399e-10
3.71617e-10
3.38936e-10
3.09097e-10
2.81862e-10
2.57013e-10
2.34349e-10
2.13687e-10
1.9486e-10
1.77714e-10
1.62108e-10
1.47914e-10
1.35015e-10
1.23303e-10
1.12681e-10
1.0306e-10
9.43599e-11
8.65063e-11
7.9433e-11
7.30801e-11
6.73934e-11
6.23243e-11
5.78293e-11
5.38698e-11
5.04116e-11
4.74249e-11
4.48837e-11
4.2766e-11
4.10535e-11
3.97311e-11
3.87875e-11
3.82142e-11
3.80065e-11
)
;

boundaryField
{
    sides
    {
        type            zeroGradient;
    }
    empty
    {
        type            empty;
    }
}


// ************************************************************************* //
