/*--------------------------------*- C++ -*----------------------------------*\
| =========                 |                                                 |
| \\      /  F ield         | OpenFOAM: The Open Source CFD Toolbox           |
|  \\    /   O peration     | Version:  2312                                  |
|   \\  /    A nd           | Website:  www.openfoam.com                      |
|    \\/     M anipulation  |                                                 |
\*---------------------------------------------------------------------------*/
FoamFile
{
    version     2.0;
    format      ascii;
    arch        "LSB;label=32;scalar=64";
    class       volScalarField;
    location    "4.5";
    object      T;
}
// * * * * * * * * * * * * * * * * * * * * * * * * * * * * * * * * * * * * * //

dimensions      [0 0 0 1 0 0 0];

internalField   nonuniform List<scalar> 
1000
(
0.53534
0.594934
0.580935
0.616771
0.593971
0.593716
0.564868
0.527831
0.49806
0.434315
0.40731
0.333049
0.308784
0.240751
0.216101
0.166717
0.138288
0.112538
0.0797817
0.074576
0.0411984
0.04742
0.0201184
0.0267796
0.0118601
0.0108509
0.010558
-4.05988e-05
0.0106834
-0.0049867
0.00865209
-0.00420451
0.0037934
0.000154465
-0.00195124
0.00462809
-0.00561744
0.00615756
-0.00531022
0.00380031
-0.00157088
-0.00075621
0.00288851
-0.00436562
0.00497866
-0.00460818
0.0033671
-0.00150776
-0.000586165
0.00250061
-0.00386112
0.00441784
-0.00409309
0.00300034
-0.00141871
-0.000266464
0.00164786
-0.00238525
0.00228037
-0.00131945
-0.000326615
0.00234552
-0.0043607
0.00602432
-0.00710376
0.00754002
-0.00746309
0.00715956
-0.00699996
0.0073437
-0.00844618
0.010392
-0.0130723
0.016213
-0.0194452
0.0224006
-0.0248038
0.0265362
-0.0276531
0.0283488
-0.0288798
0.0294691
-0.0302197
0.0310651
-0.0317722
0.0319973
-0.03138
0.0296474
-0.0266959
0.0226283
-0.0177328
0.0124123
-0.00708638
0.00209768
0.00234834
-0.00619154
0.0094738
-0.0122624
0.01457
-0.016304
0.0172659
-0.0172048
0.0159095
-0.0133063
0.00952805
-0.00492706
2.37476e-05
0.00459556
-0.00840041
0.0110198
-0.0122971
0.0122827
-0.0111755
0.00923878
-0.00672664
0.0038465
-0.00076776
-0.00233637
0.00524211
-0.00765524
0.00923899
-0.009689
0.00883213
-0.00671148
0.00362043
-6.4887e-05
-0.0033413
0.00601738
-0.00754881
0.00777086
-0.00677956
0.00487415
-0.00245867
-5.86276e-05
0.0023353
-0.00412043
0.00524512
-0.00560224
0.00514065
-0.00388519
0.0019731
0.0003197
-0.00259151
0.00438238
-0.00528634
0.00507354
-0.003776
0.00169885
0.000654556
-0.00272222
0.00404032
-0.00436356
0.00371102
-0.00232959
0.000598443
0.00108404
-0.00239126
0.00311589
-0.00317662
0.00260304
-0.00151875
0.000130542
0.00128524
-0.00241594
0.00297581
-0.00279005
0.00186999
-0.000441369
-0.00110043
0.00230493
-0.00281439
0.00248853
-0.00145449
5.99492e-05
0.0012522
-0.00209676
0.00226683
-0.00178037
0.000845168
0.000231501
-0.00114601
0.00167723
-0.00172454
0.00130985
-0.00055876
-0.000327954
0.00111162
-0.00156655
0.00154318
-0.00102735
0.000167601
0.000754666
-0.0014154
0.00157039
-0.00115882
0.000337367
0.000577343
-0.00123691
0.00140378
-0.00104393
0.000329398
0.000445528
-0.000991161
0.00113329
-0.000863756
0.000319946
0.000284843
-0.000743332
0.000917398
-0.000769067
0.000361455
0.000162993
-0.000622211
0.000848928
-0.000750426
0.000353343
0.000191806
-0.000660862
0.00084926
-0.000668602
0.000196441
0.000352762
-0.000727265
0.000759936
-0.00044892
-4.567e-05
0.000486131
-0.00067596
0.000550124
-0.000193458
-0.000214429
0.000491477
-0.000533245
0.000346281
-2.95828e-05
-0.000276777
0.000449126
-0.000423657
0.000216396
8.30942e-05
-0.00034395
0.000446219
-0.000336505
6.09507e-05
0.000247723
-0.000431888
0.000392411
-0.000147429
-0.000171882
0.000391794
-0.000394323
0.000184717
0.000113485
-0.000332697
0.000358599
-0.00019135
-6.33136e-05
0.00026211
-0.000306061
0.000188143
1.47026e-05
-0.000191813
0.000257794
-0.000189799
3.06598e-05
0.000136608
-0.000228458
0.000199059
-6.30767e-05
-0.000108183
0.000220301
-0.000206924
7.1659e-05
0.000107802
-0.000222546
0.000200133
-5.36182e-05
-0.000123804
0.000218611
-0.000172126
1.90389e-05
0.000137794
-0.000198022
0.000129766
1.40915e-05
-0.000136978
0.000164568
-8.93417e-05
-3.25613e-05
0.000123447
-0.000132938
6.3372e-05
3.82887e-05
-0.000111252
0.000114836
-4.91511e-05
-4.57321e-05
0.000111727
-0.000106455
3.11216e-05
6.63762e-05
-0.000120021
9.08398e-05
2.69535e-06
-9.44865e-05
0.000117738
-5.53596e-05
-4.58654e-05
0.000110359
-9.15774e-05
6.918e-06
7.77164e-05
-0.000100179
4.86229e-05
3.34761e-05
-8.43706e-05
7.09521e-05
-9.29787e-06
-5.27301e-05
7.26897e-05
-4.14313e-05
-1.53329e-05
5.78369e-05
-5.87329e-05
1.91797e-05
3.30255e-05
-6.14123e-05
4.5134e-05
5.18098e-06
-5.26148e-05
6.00932e-05
-2.0058e-05
-3.67843e-05
6.42854e-05
-3.90693e-05
-1.83201e-05
5.96576e-05
-5.02895e-05
-7.26322e-07
4.89253e-05
-5.38307e-05
1.3748e-05
3.48321e-05
-5.09258e-05
2.40912e-05
1.96959e-05
-4.3382e-05
3.02818e-05
5.22042e-06
-3.31418e-05
3.29459e-05
-7.50047e-06
-2.19834e-05
3.30154e-05
-1.7869e-05
-1.13456e-05
3.14458e-05
-2.56365e-05
-2.24792e-06
2.902e-05
-3.07748e-05
4.72905e-06
2.6246e-05
-3.33952e-05
9.42283e-06
2.33421e-05
-3.37201e-05
1.20389e-05
2.02969e-05
-3.20925e-05
1.307e-05
1.69824e-05
-2.89982e-05
1.31807e-05
1.32911e-05
-2.50655e-05
1.30616e-05
9.26064e-06
-2.10186e-05
1.32684e-05
5.1469e-06
-1.75716e-05
1.40789e-05
1.41139e-06
-1.52774e-05
1.54131e-05
-1.38703e-06
-1.43754e-05
1.68559e-05
-2.77567e-06
-1.46976e-05
1.77996e-05
-2.56786e-06
-1.56923e-05
1.7681e-05
-9.95525e-07
-1.65935e-05
1.62358e-05
1.30497e-06
-1.67019e-05
1.36648e-05
3.48687e-06
-1.56823e-05
1.06114e-05
4.82068e-06
-1.37384e-05
7.91969e-06
5.02416e-06
-1.1551e-05
6.24734e-06
4.42308e-06
-9.95908e-06
5.70943e-06
3.81594e-06
-9.50312e-06
5.76291e-06
4.05387e-06
-1.00664e-05
5.45255e-06
5.52378e-06
-1.08517e-05
3.94566e-06
7.83391e-06
-1.07775e-05
1.07599e-06
9.94505e-06
-9.12151e-06
-2.45988e-06
1.07465e-05
-6.02212e-06
-5.45306e-06
9.76008e-06
-2.46242e-06
-6.92812e-06
7.48815e-06
3.40839e-07
-6.79963e-06
5.08785e-06
1.77405e-06
-5.92025e-06
3.52207e-06
2.26028e-06
-5.3906e-06
2.8043e-06
2.8688e-06
-5.6042e-06
2.00048e-06
4.31592e-06
-5.8338e-06
1.06494e-07
6.17195e-06
-4.83303e-06
-2.874e-06
7.0641e-06
-2.05476e-06
-5.66117e-06
5.85698e-06
1.6029e-06
-6.6523e-06
2.80678e-06
4.35374e-06
-5.34322e-06
-4.83911e-07
5.02035e-06
-2.83314e-06
-2.4306e-06
4.04162e-06
-7.76473e-07
-2.85771e-06
2.86851e-06
2.30986e-07
-2.89649e-06
2.2927e-06
1.0476e-06
-3.39763e-06
1.59709e-06
2.59016e-06
-3.68567e-06
-3.21145e-07
4.24811e-06
-2.33684e-06
-3.08046e-06
4.23829e-06
7.37451e-07
-4.6626e-06
1.7963e-06
3.55859e-06
-3.56338e-06
-1.47821e-06
4.00992e-06
-7.1986e-07
-3.14505e-06
2.23953e-06
1.45962e-06
-2.63474e-06
3.22253e-07
1.92176e-06
-1.53672e-06
-5.06945e-07
1.80475e-06
-1.01087e-06
-1.12106e-06
2.07149e-06
-1.98149e-07
-2.33339e-06
1.66495e-06
1.75257e-06
-2.79969e-06
-5.53931e-07
3.27845e-06
-8.75751e-07
-3.00819e-06
2.12535e-06
2.12092e-06
-2.8808e-06
-9.04117e-07
2.99827e-06
-3.00427e-07
-2.51787e-06
1.19494e-06
1.62596e-06
-1.59536e-06
-5.86043e-07
1.45969e-06
-3.37387e-07
-8.76266e-07
9.41712e-07
2.28061e-08
-1.12307e-06
8.87786e-07
8.83918e-07
-1.65959e-06
-3.15696e-07
2.15238e-06
-4.34386e-07
-2.30133e-06
1.20183e-06
2.11739e-06
-1.83942e-06
-1.67268e-06
2.24178e-06
1.07682e-06
-2.35718e-06
-4.50982e-07
2.18727e-06
-9.51533e-08
-1.7775e-06
4.79825e-07
1.20201e-06
-6.57767e-07
-5.47017e-07
6.21193e-07
-1.0428e-07
-3.94821e-07
6.82964e-07
2.70976e-08
-1.14107e-06
4.20132e-07
1.45361e-06
-8.81634e-07
-1.61682e-06
1.29717e-06
1.64372e-06
-1.61752e-06
-1.55827e-06
1.80807e-06
1.38942e-06
-1.8501e-06
-1.16572e-06
1.74038e-06
9.11351e-07
-1.48954e-06
-6.43708e-07
1.11982e-06
3.72714e-07
-6.62544e-07
-1.01685e-07
1.55552e-07
-1.70538e-07
3.59353e-07
4.46572e-07
-8.39021e-07
-7.27068e-07
1.24182e-06
1.00743e-06
-1.53085e-06
-1.27524e-06
1.67768e-06
1.50907e-06
-1.6663e-06
-1.67906e-06
1.49709e-06
1.74996e-06
-1.19001e-06
-1.6865e-06
7.86025e-07
1.46093e-06
-3.45796e-07
-1.06188e-06
-5.54773e-08
5.0292e-07
3.3763e-07
1.71286e-07
-4.29268e-07
-8.83704e-07
2.84232e-07
1.53094e-06
1.02108e-07
-1.9979e-06
-6.80928e-07
2.18079e-06
1.34734e-06
-2.01532e-06
-1.95159e-06
1.50426e-06
2.32622e-06
-7.35572e-07
-2.32754e-06
-1.18023e-07
1.88371e-06
8.25555e-07
-1.03666e-06
-1.15175e-06
-3.92544e-08
9.3049e-07
1.05726e-06
-1.38889e-07
-1.68477e-06
-1.05563e-06
1.64909e-06
2.30415e-06
-8.55212e-07
-3.15906e-06
-5.283e-07
3.22448e-06
2.06488e-06
-2.33449e-06
-3.16032e-06
6.88251e-07
3.28089e-06
1.13831e-06
-2.21539e-06
-2.35807e-06
2.66294e-07
2.29894e-06
1.75715e-06
-7.79422e-07
-2.81689e-06
-1.655e-06
2.14368e-06
3.82429e-06
2.50928e-07
-4.40841e-06
-3.35363e-06
2.69523e-06
5.47248e-06
7.98461e-07
-5.107e-06
-4.29669e-06
1.99119e-06
5.5798e-06
2.35599e-06
-3.39804e-06
-5.17194e-06
-1.32812e-06
4.11293e-06
5.53369e-06
8.13493e-07
-5.73997e-06
-6.51073e-06
7.55377e-07
8.36703e-06
6.57498e-06
-3.72648e-06
-1.05298e-05
-5.09537e-06
6.74144e-06
1.12821e-05
3.24395e-06
-8.51321e-06
-1.14589e-05
-2.59326e-06
9.35484e-06
1.27035e-05
3.424e-06
-1.06644e-05
-1.57096e-05
-4.75789e-06
1.32169e-05
1.97568e-05
5.8538e-06
-1.62527e-05
-2.38135e-05
-7.39148e-06
1.81086e-05
2.77646e-05
1.12158e-05
-1.73968e-05
-3.24052e-05
-1.91046e-05
1.33733e-05
3.81872e-05
3.17335e-05
-5.18088e-06
-4.37051e-05
-4.83663e-05
-9.14978e-06
4.48181e-05
6.67001e-05
3.26396e-05
-3.46733e-05
-8.18533e-05
-6.7268e-05
4.75276e-06
8.41819e-05
0.000109414
5.20591e-05
-5.74088e-05
-0.000143223
-0.000134062
-1.86703e-05
0.000134677
0.000216867
0.000153635
-3.49938e-05
-0.000236773
-0.000313296
-0.000189024
9.17656e-05
0.000375814
0.000478723
0.000293284
-0.000129664
-0.000580749
-0.000787372
-0.000564243
6.17758e-05
0.000827801
0.00133599
0.00123848
0.000423429
-0.000882934
-0.00215261
-0.00273474
-0.00212482
-0.000226123
0.00250797
0.00512743
0.00644068
0.00540327
0.0015283
-0.00479546
-0.0121645
-0.0182441
-0.0200688
-0.0144984
0.00126885
0.029241
0.0703229
0.124194
0.189371
0.263422
0.343287
0.425655
0.507316
0.585459
0.657856
0.722949
0.779853
0.828293
0.868507
0.901111
0.926955
0.946997
0.962205
0.973503
0.981729
0.987611
0.991746
0.994599
0.996524
0.99779
0.998608
0.999137
0.999483
0.999706
0.999837
0.999901
0.999928
0.999949
0.999977
1.00001
1.00002
1
0.999982
0.999972
0.999987
1.00002
1.00003
1.00002
0.999986
0.99996
0.999968
1.00001
1.00004
1.00005
1.00001
0.999956
0.999935
0.999967
1.00003
1.00008
1.00007
0.999996
0.999915
0.999889
0.999948
1.00006
1.00014
1.00013
1.00002
0.999866
0.999785
0.999847
1.00003
1.00024
1.00031
1.00019
0.999908
0.999622
0.99952
0.999708
1.00013
1.00058
1.00078
1.00056
0.99994
0.999175
0.998664
0.998759
0.999575
1.00088
1.00216
1.00274
1.00212
1.00022
0.997493
0.994876
0.99356
0.994594
0.998468
1.0048
1.01217
1.01825
1.02007
1.01449
0.99873
0.970763
0.929681
0.875805
0.810623
0.736575
0.656716
0.574351
0.492686
0.414536
0.342138
0.27705
0.220154
0.171713
0.131491
0.0988807
0.0730393
0.0530072
0.0378046
0.0265019
0.0182651
0.0123782
0.00825011
0.00540868
0.00348828
0.00221346
0.00138202
0.000849134
0.000513431
0.000305527
0.000178933
0.000103134
5.85031e-05
3.26585e-05
1.79402e-05
9.69671e-06
5.15624e-06
2.69701e-06
1.38734e-06
7.01663e-07
3.48811e-07
1.70378e-07
8.17357e-08
3.84917e-08
1.77834e-08
8.05449e-09
3.57311e-09
1.55083e-09
6.57661e-10
2.72022e-10
1.09496e-10
4.27644e-11
1.61385e-11
5.84981e-12
2.01798e-12
6.52325e-13
1.91847e-13
4.78722e-14
7.82619e-15
-1.02071e-15
-1.81299e-15
-1.15154e-15
-5.68528e-16
-2.44482e-16
-9.47376e-17
-3.33006e-17
-1.04808e-17
-2.82352e-18
-5.59062e-19
-1.24919e-20
6.41865e-20
4.49916e-20
2.20058e-20
8.97563e-21
3.18035e-21
9.73268e-22
2.42184e-22
3.73209e-23
-5.7201e-24
-8.33069e-24
-4.68667e-24
-1.99953e-24
-7.11715e-25
-2.12218e-25
-4.91385e-26
-5.66092e-27
2.29041e-27
2.10662e-27
1.04448e-27
4.0174e-28
1.26567e-28
3.12824e-29
4.55248e-30
-8.19161e-31
-1.01956e-30
-5.24161e-31
-2.00508e-31
-6.12674e-32
-1.41217e-32
-1.56135e-33
6.45648e-34
5.54629e-34
2.55278e-34
8.87783e-35
2.39442e-35
4.26823e-36
-1.20827e-37
-5.30183e-37
-2.91925e-37
-1.1055e-37
-3.20135e-38
-6.48289e-39
-2.93035e-40
5.1604e-40
3.2083e-40
1.2595e-40
3.70024e-41
7.56069e-42
3.80925e-43
-5.64722e-43
-3.49591e-43
-1.34238e-43
-3.79324e-44
-7.11046e-45
-4.6719e-47
6.86207e-46
3.74341e-46
1.32858e-46
3.40698e-47
5.08084e-48
-6.42731e-49
-8.37023e-49
-3.79263e-49
-1.1835e-49
-2.54123e-50
-1.88898e-51
1.45306e-51
9.3496e-52
3.45571e-52
8.96103e-53
1.34056e-53
-1.50765e-54
-2.16295e-54
-6.65648e-55
)
;

boundaryField
{
    sides
    {
        type            zeroGradient;
    }
    empty
    {
        type            empty;
    }
}


// ************************************************************************* //
