/*--------------------------------*- C++ -*----------------------------------*\
| =========                 |                                                 |
| \\      /  F ield         | OpenFOAM: The Open Source CFD Toolbox           |
|  \\    /   O peration     | Version:  2312                                  |
|   \\  /    A nd           | Website:  www.openfoam.com                      |
|    \\/     M anipulation  |                                                 |
\*---------------------------------------------------------------------------*/
FoamFile
{
    version     2.0;
    format      ascii;
    arch        "LSB;label=32;scalar=64";
    class       volScalarField;
    location    "3.3";
    object      T;
}
// * * * * * * * * * * * * * * * * * * * * * * * * * * * * * * * * * * * * * //

dimensions      [0 0 0 1 0 0 0];

internalField   nonuniform List<scalar> 
1000
(
0
0
0
0
0
0
0
0
0
0
0
0
0
0
0
0
0
0
0
0
0
0
0
0
0
0
0
0
0
0
0
0
0
0
0
0
0
0
0
0
0
0
0
0
0
0
0
0
0
0
0
0
0
0
0
0
0
0
0
0
0
0
0
0
0
0
0
0
0
0
0
0
0
0
0
0
0
0
0
0
0
0
0
0
0
0
0
0
0
0
0
0
0
0
0
0
0
0
0
0
0
0
0
0
0
0
0
0
0
0
0
0
0
0
0
0
0
0
0
0
0
0
0
0
0
0
0
0
0
0
0
0
0
0
0
0
0
0
0
0
0
0
0
0
0
0
0
0
0
0
0
0
0
0
0
0
0
0
0
0
0
0
0
0
0
0
0
0
0
0
0
0
0
0
0
0
0
0
0
0
0
0
0
0
0
0
0
0
0
0
0
0
0
0
0
0
0
0
0
0
0
0
0
0
0
0
0
0
0
0
0
0
0
0
0
0
0
0
0
0
0
0
0
0
0
0
0
0
0
0
0
0
0
0
0
0
0
0
0
0
0
0
0
0
0
0
0
0
0
0
0
0
0
0
0
0
0
0
0
0
0
0
0
0
0
0
0
0
0
0
0
0
0
0
0
0
0
0
0
0
0
0
0
0
0
0
0
0
0
0
0
0
0
0
0
0
0
0
0
0
0
0
0
0
0
0
0
0
0
0
0
0
0
0
0
0
0
0
0
0
0
0
0
0
0
0
0
0
0
0
0
0
0
0
0
0
0
0
0
0
0
0
0
0
0
0
0
0
0
0
0
0
0
0
0
0
0
0
0
0
0
0
0
0
0
0
0
0
0
0
0
0
0
0
0
0
0
0
0
0
0
0
0
0
0
0
0
0
0
0
0
0
0
0
0
0
0
0
0
0
0
0
0
0
0
0
0
0
0
0
0
0
0
0
0
0
0
0
0
0
0
0
0
0
0
0
0
0
0
0
0
0
0
0
0
0
0
0
0
0
0
0
0
0
0
0
0
0
0
0
5.84764e-95
1.23385e-92
1.30213e-90
9.16425e-89
4.83882e-87
2.04462e-85
7.20186e-84
2.17506e-82
5.74969e-81
1.35147e-79
2.8599e-78
5.50355e-77
9.71152e-76
1.58238e-74
2.39491e-73
3.38411e-72
4.48449e-71
5.59491e-70
6.59462e-69
7.36626e-68
7.8193e-67
7.90753e-66
7.63575e-65
7.05502e-64
6.24888e-63
5.31519e-62
4.34854e-61
3.42704e-60
2.60521e-59
1.91278e-58
1.35803e-57
9.33366e-57
6.21654e-56
4.01628e-55
2.51927e-54
1.53561e-53
9.10315e-53
5.25226e-52
2.95163e-51
1.61673e-50
8.63696e-50
4.50301e-49
2.29257e-48
1.14042e-47
5.54581e-47
2.63784e-46
1.22781e-45
5.59518e-45
2.49746e-44
1.09237e-43
4.68395e-43
1.96969e-42
8.12631e-42
3.29048e-41
1.30813e-40
5.10763e-40
1.95932e-39
7.38668e-39
2.73769e-38
9.97791e-38
3.57717e-37
1.26185e-36
4.38083e-36
1.49728e-35
5.0391e-35
1.67038e-34
5.455e-34
1.75545e-33
5.56791e-33
1.74102e-32
5.36798e-32
1.63232e-31
4.89632e-31
1.44908e-30
4.23207e-30
1.21992e-29
3.47139e-29
9.75317e-29
2.70603e-28
7.4154e-28
2.00734e-27
5.36861e-27
1.4188e-26
3.70567e-26
9.56663e-26
2.44152e-25
6.16074e-25
1.53721e-24
3.79333e-24
9.25872e-24
2.23552e-23
5.34022e-23
1.26224e-22
2.95246e-22
6.8349e-22
1.56616e-21
3.55258e-21
7.97819e-21
1.77404e-20
3.9063e-20
8.51839e-20
1.83985e-19
3.93624e-19
8.34255e-19
1.75176e-18
3.6446e-18
7.51389e-18
1.53517e-17
3.10862e-17
6.23923e-17
1.24133e-16
2.44832e-16
4.78756e-16
9.28237e-16
1.78458e-15
3.40236e-15
6.43315e-15
1.20643e-14
2.2441e-14
4.14078e-14
7.57965e-14
1.3765e-13
2.48022e-13
4.4343e-13
7.86696e-13
1.38505e-12
2.42009e-12
4.19692e-12
7.22421e-12
1.23435e-11
2.09364e-11
3.5254e-11
5.89361e-11
9.78247e-11
1.61226e-10
2.63854e-10
4.28808e-10
6.92076e-10
1.10933e-09
1.76609e-09
2.79271e-09
4.38659e-09
6.84445e-09
1.06092e-08
1.63374e-08
2.49954e-08
3.79959e-08
5.73897e-08
8.61337e-08
1.28462e-07
1.90398e-07
2.80449e-07
4.10555e-07
5.97356e-07
8.63896e-07
1.24187e-06
1.77457e-06
2.52079e-06
3.55978e-06
4.99774e-06
6.976e-06
9.68144e-06
1.33596e-05
1.8331e-05
2.50111e-05
3.39357e-05
4.57904e-05
6.14473e-05
8.20089e-05
0.000108859
0.000143726
0.000188751
0.000246572
0.000320418
0.000414214
0.000532704
0.000681581
0.000867636
0.00109891
0.00138488
0.0017366
0.00216694
0.00269071
0.00332491
0.00408887
0.00500441
0.00609604
0.00739103
0.00891953
0.0107146
0.0128123
0.0152514
0.0180737
0.0213231
0.0250463
0.0292916
0.0341089
0.0395491
0.0456635
0.052503
0.0601175
0.0685551
0.0778612
0.0880774
0.0992411
0.111384
0.124532
0.138702
0.153907
0.170147
0.187416
0.205697
0.224963
0.245177
0.266295
0.288259
0.311004
0.334456
0.358533
0.383146
0.408199
0.433592
0.459221
0.48498
0.510761
0.536456
0.56196
0.58717
0.611987
0.636318
0.660074
0.683175
0.70555
0.727134
0.747872
0.767718
0.786634
0.804595
0.821581
0.837582
0.852596
0.866632
0.8797
0.891822
0.903023
0.913334
0.92279
0.931428
0.93929
0.946419
0.95286
0.958656
0.963854
0.968497
0.972631
0.976297
0.979536
0.982388
0.98489
0.987077
0.988981
0.990632
0.992059
0.993288
0.99434
0.995238
0.995999
0.99664
0.997176
0.997619
0.997979
0.998266
0.998485
0.998641
0.998739
0.998778
0.99876
0.998681
0.998537
0.998323
0.998029
0.997646
0.99716
0.996557
0.995818
0.994922
0.993846
0.992564
0.991045
0.989258
0.987166
0.984732
0.981913
0.978667
0.974946
0.970703
0.965887
0.960447
0.954334
0.947495
0.939881
0.931444
0.922138
0.911922
0.900758
0.888616
0.875468
0.861297
0.846093
0.829853
0.812584
0.794303
0.775037
0.754822
0.733705
0.711741
0.688996
0.665544
0.641467
0.616854
0.591801
0.566408
0.540779
0.51502
0.489239
0.463544
0.43804
0.41283
0.388013
0.363682
0.339926
0.316825
0.29445
0.272866
0.252128
0.232282
0.213366
0.195405
0.178419
0.162418
0.147404
0.133368
0.1203
0.108178
0.0969766
0.0866657
0.0772102
0.0685719
0.0607097
0.0535806
0.0471403
0.0413438
0.036146
0.0315021
0.0273683
0.023702
0.0204621
0.0176093
0.0151065
0.0129185
0.0110125
0.00935818
0.00792731
0.00669408
0.00563492
0.00472844
0.00395534
0.00329826
0.00274173
0.00227198
0.00187683
0.00154558
0.00126883
0.0010384
0.000847179
0.000689034
0.000558679
0.000451588
0.000363902
0.000292342
0.000234134
0.000186942
0.000148807
0.000118091
9.34306e-05
7.36959e-05
5.7954e-05
4.54372e-05
3.55166e-05
2.76787e-05
2.1506e-05
1.666e-05
1.28675e-05
9.90882e-06
7.60785e-06
5.82394e-06
4.44519e-06
3.38287e-06
2.56688e-06
1.94202e-06
1.46499e-06
1.10193e-06
8.26436e-07
6.18028e-07
4.60843e-07
3.42648e-07
2.54036e-07
1.87802e-07
1.38441e-07
1.01764e-07
7.45912e-08
5.45197e-08
3.97368e-08
2.88809e-08
2.09319e-08
1.51284e-08
1.09034e-08
7.83658e-09
5.61674e-09
4.01459e-09
2.86154e-09
2.03406e-09
1.4419e-09
1.01935e-09
7.18659e-10
5.05293e-10
3.54312e-10
2.47773e-10
1.72804e-10
1.20194e-10
8.3378e-11
5.76845e-11
3.98024e-11
2.73908e-11
1.87997e-11
1.28692e-11
8.78629e-12
5.98302e-12
4.06349e-12
2.7526e-12
1.85976e-12
1.25327e-12
8.42376e-13
5.64739e-13
3.77635e-13
2.51873e-13
1.67564e-13
1.11192e-13
7.35968e-14
4.85896e-14
3.19985e-14
2.10195e-14
1.37728e-14
9.00184e-15
5.86889e-15
3.81678e-15
2.47605e-15
1.6023e-15
1.03432e-15
6.66037e-16
4.27831e-16
2.74146e-16
1.75239e-16
1.11743e-16
7.1081e-17
4.51061e-17
2.85541e-17
1.80324e-17
1.13604e-17
7.13997e-18
4.47672e-18
2.8002e-18
1.74737e-18
1.08781e-18
6.75605e-19
4.18611e-19
2.58766e-19
1.59583e-19
9.81862e-20
6.02702e-20
3.69101e-20
2.25518e-20
1.37471e-20
8.3607e-21
5.07312e-21
3.07123e-21
1.85505e-21
1.11791e-21
6.72162e-22
4.03232e-22
2.41353e-22
1.44136e-22
8.58844e-23
5.10601e-23
3.02885e-23
1.79269e-23
1.05868e-23
6.23823e-24
3.66772e-24
2.15165e-24
1.25948e-24
7.35628e-25
4.2872e-25
2.4931e-25
1.44664e-25
8.37599e-26
4.83918e-26
2.78977e-26
1.60483e-26
9.21201e-27
5.27654e-27
3.01589e-27
1.72011e-27
9.78973e-28
5.55987e-28
3.15093e-28
1.78195e-28
1.00563e-28
5.6633e-29
3.18266e-29
1.78485e-29
9.98874e-30
5.57848e-30
3.10899e-30
1.72912e-30
9.597e-31
5.31559e-31
2.93816e-31
1.62073e-31
8.92194e-32
4.90143e-32
2.68722e-32
1.47029e-32
8.02835e-33
4.37495e-33
2.37928e-33
1.29136e-33
6.99484e-34
3.78131e-34
2.04005e-34
1.09844e-34
5.90274e-35
3.1657e-35
1.69446e-35
9.05182e-36
4.82602e-36
2.56798e-36
1.36379e-36
7.22862e-37
3.82402e-37
)
;

boundaryField
{
    sides
    {
        type            zeroGradient;
    }
    empty
    {
        type            empty;
    }
}


// ************************************************************************* //
