/*--------------------------------*- C++ -*----------------------------------*\
| =========                 |                                                 |
| \\      /  F ield         | OpenFOAM: The Open Source CFD Toolbox           |
|  \\    /   O peration     | Version:  2312                                  |
|   \\  /    A nd           | Website:  www.openfoam.com                      |
|    \\/     M anipulation  |                                                 |
\*---------------------------------------------------------------------------*/
FoamFile
{
    version     2.0;
    format      ascii;
    arch        "LSB;label=32;scalar=64";
    class       volScalarField;
    location    "1.5";
    object      T;
}
// * * * * * * * * * * * * * * * * * * * * * * * * * * * * * * * * * * * * * //

dimensions      [0 0 0 1 0 0 0];

internalField   nonuniform List<scalar> 
1000
(
0
0
0
0
0
0
0
0
0
0
0
0
0
0
0
0
0
0
0
0
0
0
0
0
0
0
0
0
0
0
0
0
0
0
0
0
0
0
0
0
0
0
0
0
0
0
0
0
0
0
0
0
0
0
0
0
0
0
0
0
0
0
0
0
0
0
0
0
0
0
0
0
0
0
0
0
0
0
0
0
0
0
0
0
0
0
0
0
0
0
0
0
0
0
0
0
0
0
0
0
0
0
0
0
0
0
0
0
0
0
0
0
0
0
0
0
0
0
0
0
0
0
0
0
0
0
0
0
0
0
0
0
0
0
0
0
0
0
0
0
0
0
0
0
0
0
0
0
0
0
0
0
0
0
0
0
0
0
0
0
0
0
0
0
0
0
0
0
0
0
0
0
0
0
0
0
0
0
0
0
0
0
0
0
0
0
0
0
0
0
0
0
0
0
0
0
0
0
0
0
0
0
0
0
0
0
0
0
0
0
0
0
0
0
0
0
0
0
0
0
0
0
0
0
0
0
0
0
0
0
0
0
0
0
0
0
0
0
0
0
0
0
0
0
0
0
0
0
0
0
0
0
0
0
0
0
0
0
0
0
0
0
0
0
0
0
0
0
0
0
0
0
0
0
0
0
0
0
0
0
0
0
0
0
0
0
0
0
0
0
0
0
0
0
0
0
0
0
0
0
0
0
0
0
0
0
0
0
0
0
0
0
0
0
0
0
0
0
0
0
0
0
0
0
0
0
0
0
0
0
0
0
0
0
0
0
0
0
0
0
0
0
0
0
0
0
0
0
0
0
0
0
0
0
0
0
0
0
0
0
0
0
0
0
0
0
0
0
0
0
0
0
0
0
0
0
0
0
0
0
0
0
0
0
0
0
0
0
0
0
0
0
0
0
0
0
0
0
0
0
0
0
0
0
7.29362e-74
-4.89618e-58
2.94202e-50
-1.7353e-46
7.75265e-47
2.60936e-43
9.33198e-42
1.8741e-40
2.66812e-39
2.95555e-38
2.676e-37
2.03652e-36
1.32123e-35
7.32315e-35
3.42333e-34
1.29251e-33
3.3907e-33
8.59982e-34
-6.06857e-32
-4.99187e-31
-2.83072e-30
-1.34834e-29
-5.77982e-29
-2.30705e-28
-8.7065e-28
-3.10931e-27
-1.04118e-26
-3.22124e-26
-9.04906e-26
-2.26368e-25
-4.93207e-25
-9.16485e-25
-1.4803e-24
-2.63701e-24
-8.18841e-24
-3.50742e-23
-1.36638e-22
-4.36852e-22
-1.12455e-21
-2.22321e-21
-2.72024e-21
1.49805e-21
2.07556e-20
7.23658e-20
1.67743e-19
2.61924e-19
1.33929e-19
-8.01906e-19
-3.61928e-18
-9.47381e-18
-1.76307e-17
-2.10987e-17
2.14758e-18
1.05117e-16
3.69624e-16
7.54657e-16
1.66695e-16
-3.20978e-15
-4.56821e-15
6.32847e-15
1.62184e-14
-9.03472e-15
-4.26392e-14
8.52522e-15
1.01197e-13
8.37323e-15
-2.24674e-13
-8.84909e-14
4.73423e-13
3.54554e-13
-9.43589e-13
-1.10952e-12
1.615e-12
3.10277e-12
-2.03163e-12
-7.72957e-12
5.55889e-13
1.67601e-11
7.84287e-12
-3.19494e-11
-3.42109e-11
4.37133e-11
1.01917e-10
-2.0736e-11
-2.30586e-10
-1.28178e-10
4.02459e-10
5.51706e-10
-3.60716e-10
-1.44854e-09
-5.15532e-10
2.59074e-09
3.30919e-09
-2.06241e-09
-8.70932e-09
-4.46394e-09
1.32149e-08
2.25816e-08
-2.41481e-09
-4.85087e-08
-4.78978e-08
3.95902e-08
1.43332e-07
9.19019e-08
-1.70732e-07
-3.89853e-07
-1.68631e-07
5.59655e-07
1.04707e-06
3.30941e-07
-1.59115e-06
-2.79949e-06
-9.91183e-07
3.95946e-06
7.65677e-06
4.01323e-06
-8.46737e-06
-2.05851e-05
-1.64473e-05
1.16292e-05
5.13565e-05
5.99658e-05
1.0555e-05
-9.62261e-05
-0.000184564
-0.000148613
6.54945e-05
0.0004004
0.000603355
0.000417706
-0.000285406
-0.00133061
-0.00204579
-0.00169757
0.000152405
0.00340283
0.00684406
0.0080581
0.00542722
-0.00233978
-0.0149277
-0.0293472
-0.0394456
-0.0384249
-0.022216
0.01465
0.074871
0.15768
0.258885
0.371695
0.488029
0.599977
0.701035
0.786882
0.855605
0.907453
0.944262
0.96877
0.983985
0.992703
0.997231
0.999281
0.999957
1
1
1
1
1
1
1
1
1
1
1
1
1
1
1
1
1
1
1
1
1
1
1
1
1
1
1
1
1
1
1
1
1
1
1
1
1
1
1
1
1
1
1
1
0.999999
0.999999
1
1
1
1
0.999996
0.999992
0.999996
1.00001
1.00002
1.00002
0.999989
0.999948
0.99994
0.999989
1.0001
1.00018
1.00015
0.999935
0.999601
0.999398
0.999584
1.00029
1.00133
1.00204
1.00169
0.999844
0.996595
0.993158
0.991948
0.994583
1.00235
1.01494
1.02935
1.03943
1.03839
1.02216
0.985258
0.925007
0.842177
0.740961
0.628153
0.51183
0.399901
0.298867
0.213044
0.144342
0.0925122
0.0557174
0.0312184
0.0160095
0.00729465
0.00276825
0.000718667
4.25772e-05
6.85039e-16
3.65333e-16
3.64416e-16
3.6021e-16
3.49411e-16
3.29482e-16
3.00086e-16
2.63432e-16
2.23357e-16
1.83852e-16
1.47909e-16
1.17102e-16
9.17805e-17
7.15201e-17
5.55535e-17
4.30604e-17
3.33098e-17
2.57053e-17
1.97783e-17
1.51652e-17
1.15834e-17
8.81106e-18
6.67349e-18
5.03223e-18
3.77764e-18
2.82299e-18
2.09995e-18
1.5549e-18
1.14597e-18
8.40627e-19
6.13723e-19
4.45923e-19
3.22437e-19
2.32008e-19
1.66118e-19
1.18347e-19
8.38905e-20
5.91644e-20
4.15131e-20
2.89783e-20
2.01239e-20
1.39026e-20
9.55465e-21
6.53234e-21
4.44279e-21
3.00591e-21
2.02318e-21
1.35467e-21
9.02367e-22
5.97982e-22
3.94239e-22
2.58587e-22
1.68749e-22
1.09565e-22
7.07809e-23
4.54969e-23
2.90993e-23
1.85196e-23
1.17285e-23
7.39134e-24
4.63544e-24
2.89305e-24
1.79693e-24
1.11077e-24
6.83366e-25
4.18432e-25
2.55006e-25
1.54682e-25
9.33906e-26
5.61243e-26
3.35733e-26
1.99912e-26
1.18494e-26
6.99156e-27
4.10659e-27
2.40119e-27
1.39771e-27
8.09958e-28
4.67271e-28
2.68376e-28
1.5346e-28
8.73642e-29
4.95178e-29
2.7944e-29
1.57008e-29
8.78353e-30
4.89256e-30
2.71351e-30
1.49851e-30
8.24007e-31
4.5118e-31
2.45994e-31
1.33556e-31
7.22055e-32
3.88736e-32
2.08412e-32
1.11271e-32
5.91611e-33
3.13254e-33
1.65184e-33
8.67481e-34
4.53708e-34
2.36334e-34
1.22607e-34
6.33508e-35
3.26019e-35
1.67107e-35
8.53129e-36
4.3382e-36
2.19729e-36
1.10855e-36
5.5708e-37
2.78859e-37
1.39047e-37
6.9065e-38
3.41726e-38
1.68434e-38
8.2703e-39
4.04537e-39
1.97128e-39
9.56968e-40
4.62822e-40
2.22999e-40
1.07047e-40
5.11956e-41
2.43942e-41
1.15808e-41
5.47775e-42
2.58155e-42
1.21221e-42
5.67161e-43
2.64405e-43
1.22822e-43
5.68497e-44
2.62203e-44
1.20506e-44
5.51884e-45
2.51862e-45
1.1454e-45
5.19089e-46
2.34434e-46
1.05512e-46
4.73246e-47
2.11538e-47
9.42342e-48
4.18365e-48
1.85112e-48
8.16307e-49
3.58771e-49
1.57156e-49
6.86125e-50
2.98565e-50
1.29492e-50
5.59788e-51
2.41204e-51
1.03594e-51
4.43482e-52
1.89242e-52
8.0494e-53
3.41288e-53
1.44243e-53
6.07702e-54
2.5522e-54
1.06849e-54
4.45932e-55
1.85529e-55
7.6949e-56
3.18164e-56
1.31148e-56
5.38936e-57
2.20794e-57
9.01806e-58
3.67217e-58
1.49081e-58
6.03411e-59
2.43503e-59
9.79715e-60
3.9301e-60
1.57189e-60
6.26848e-61
2.49244e-61
9.88141e-62
3.90613e-62
1.53962e-62
6.05101e-63
2.37132e-63
9.26632e-64
3.61064e-64
1.40289e-64
5.43544e-65
2.1e-65
8.09061e-66
3.10833e-66
1.19086e-66
4.54976e-67
1.73345e-67
6.58625e-68
2.49558e-68
9.43006e-69
3.55364e-69
1.33553e-69
5.0056e-70
1.87107e-70
6.97517e-71
2.59333e-71
9.61621e-72
3.55628e-72
1.31171e-72
4.82543e-73
1.77049e-73
6.47906e-74
2.36483e-74
8.60912e-75
3.12603e-75
1.13216e-75
4.08984e-76
1.47365e-76
5.2963e-77
1.89866e-77
6.78925e-78
2.42159e-78
8.61564e-79
3.05764e-79
1.08243e-79
3.82238e-80
1.34645e-80
4.73125e-81
1.65841e-81
5.79885e-82
2.0227e-82
7.0382e-83
2.44309e-83
8.4599e-84
2.92244e-84
1.00712e-84
3.46242e-85
1.18752e-85
4.06322e-86
1.38698e-86
4.7233e-87
1.60472e-87
5.43919e-88
1.83931e-88
6.20531e-89
2.08865e-89
7.01393e-90
2.34994e-90
7.85515e-91
2.61974e-91
8.71707e-92
2.89398e-92
9.58594e-93
3.16806e-93
1.04466e-93
3.43701e-94
1.12828e-94
3.69558e-95
1.20777e-95
3.93843e-96
1.28145e-96
4.16033e-97
1.34772e-97
4.35635e-98
1.40507e-98
4.52202e-99
1.4522e-99
4.65351e-100
1.488e-100
4.74779e-101
1.51166e-101
4.80274e-102
1.52266e-102
4.81723e-103
1.52081e-103
4.79115e-104
1.50623e-104
4.72539e-105
1.47937e-105
4.62185e-106
1.44097e-106
4.48329e-107
1.39202e-107
4.31322e-108
1.33374e-108
4.11579e-109
1.26752e-109
3.8956e-110
1.19486e-110
3.65751e-111
1.11733e-111
3.40649e-112
1.0365e-112
3.14748e-113
9.53887e-114
2.88518e-114
8.70946e-115
2.62396e-115
7.88988e-116
2.36775e-116
7.09178e-117
2.11998e-117
6.32508e-118
1.88348e-118
5.59786e-119
1.66054e-119
4.91637e-120
1.45282e-120
4.28501e-121
1.26144e-121
3.7065e-122
1.08703e-122
3.182e-123
9.29705e-124
2.71131e-124
7.89229e-125
2.29308e-125
6.65016e-126
1.92505e-126
5.56226e-127
1.60421e-127
4.61826e-128
1.32709e-128
3.80656e-129
1.08987e-129
3.11481e-130
8.88592e-131
2.53042e-131
7.19286e-132
2.04096e-132
5.78083e-133
1.63445e-133
4.61301e-134
1.29965e-134
)
;

boundaryField
{
    sides
    {
        type            zeroGradient;
    }
    empty
    {
        type            empty;
    }
}


// ************************************************************************* //
