/*--------------------------------*- C++ -*----------------------------------*\
| =========                 |                                                 |
| \\      /  F ield         | OpenFOAM: The Open Source CFD Toolbox           |
|  \\    /   O peration     | Version:  2312                                  |
|   \\  /    A nd           | Website:  www.openfoam.com                      |
|    \\/     M anipulation  |                                                 |
\*---------------------------------------------------------------------------*/
FoamFile
{
    version     2.0;
    format      ascii;
    arch        "LSB;label=32;scalar=64";
    class       volScalarField;
    location    "4.6";
    object      T;
}
// * * * * * * * * * * * * * * * * * * * * * * * * * * * * * * * * * * * * * //

dimensions      [0 0 0 1 0 0 0];

internalField   nonuniform List<scalar> 
1000
(
0
0
0
0
0
0
0
0
0
0
0
0
0
0
0
0
0
0
0
0
0
0
0
0
0
0
0
0
0
0
0
0
0
0
0
0
0
0
0
0
0
0
0
0
0
0
0
0
0
0
0
0
0
0
0
0
0
0
0
0
0
0
0
0
0
0
0
0
0
0
0
0
0
0
0
0
0
0
0
0
0
0
0
0
0
0
0
0
0
0
0
0
0
0
0
0
0
0
0
0
0
0
0
0
0
0
0
0
0
0
0
0
0
0
0
0
0
0
0
0
0
0
0
0
0
0
0
0
0
0
0
0
0
0
0
0
0
0
0
0
0
0
0
0
0
0
0
0
0
0
0
0
0
0
0
0
0
0
0
0
0
0
0
0
0
0
0
0
0
0
0
0
0
0
0
0
0
0
0
0
0
0
0
0
0
0
0
0
0
0
0
0
0
0
0
0
0
0
0
0
0
0
0
0
0
0
0
0
0
0
0
0
0
0
0
0
0
0
0
0
0
0
0
0
0
0
0
0
0
0
0
0
0
0
0
0
0
0
0
0
0
0
0
0
0
0
0
0
0
0
0
0
0
0
0
0
0
0
0
0
0
0
0
0
0
0
0
0
0
0
0
0
0
0
0
0
0
0
0
0
0
0
0
0
0
0
0
0
0
0
0
0
0
0
0
0
0
0
0
0
0
0
0
0
0
0
0
0
0
0
0
0
0
0
0
0
0
0
0
0
0
0
0
0
0
0
0
0
0
0
0
0
0
0
0
0
0
0
0
0
0
0
0
0
0
0
0
0
0
0
0
0
0
0
0
0
0
0
0
0
0
0
0
0
0
0
0
0
0
0
0
0
0
0
0
0
0
0
0
0
0
0
0
0
0
0
0
0
0
0
0
0
0
0
0
0
0
0
0
0
0
0
0
0
2.19288e-162
-1.47207e-146
8.84538e-139
-5.04283e-135
-1.00969e-132
-9.21149e-131
-4.75266e-129
-1.10989e-127
3.88934e-126
5.60481e-124
3.44213e-122
1.53112e-120
5.53281e-119
1.70675e-117
4.62249e-116
1.11961e-114
2.45747e-113
4.93755e-112
9.15385e-111
1.57615e-109
2.53432e-108
3.82304e-107
5.43218e-106
7.29579e-105
9.2904e-104
1.12472e-102
1.29764e-101
1.42993e-100
1.50792e-99
1.52449e-98
1.47997e-97
1.38168e-96
1.24214e-95
1.07666e-94
9.00797e-94
7.28211e-93
5.69352e-92
4.30893e-91
3.15909e-90
2.24523e-89
1.54788e-88
1.03568e-87
6.72866e-87
4.24629e-86
2.6037e-85
1.55148e-84
8.98454e-84
5.05583e-83
2.76379e-82
1.46687e-81
7.55206e-81
3.76644e-80
1.81591e-79
8.43722e-79
3.75955e-78
1.59396e-77
6.34215e-77
2.30516e-76
7.17767e-76
1.51878e-75
-1.75479e-75
-4.86887e-74
-4.03137e-73
-2.60311e-72
-1.49172e-71
-7.93352e-71
-3.99881e-70
-1.93248e-69
-9.018e-69
-4.08292e-68
-1.79944e-67
-7.73872e-67
-3.25366e-66
-1.3393e-65
-5.40375e-65
-2.13917e-64
-8.31527e-64
-3.17607e-63
-1.19274e-62
-4.40631e-62
-1.60205e-61
-5.73508e-61
-2.02222e-60
-7.02587e-60
-2.40602e-59
-8.12387e-59
-2.70533e-58
-8.88779e-58
-2.88141e-57
-9.22078e-57
-2.91337e-56
-9.09068e-56
-2.80206e-55
-8.53381e-55
-2.56857e-54
-7.64229e-54
-2.24818e-53
-6.5404e-53
-1.88204e-52
-5.35781e-52
-1.50922e-51
-4.20721e-51
-1.16085e-50
-3.17065e-50
-8.57364e-50
-2.29544e-49
-6.0853e-49
-1.5975e-48
-4.15302e-48
-1.06922e-47
-2.72617e-47
-6.88384e-47
-1.72148e-46
-4.26352e-46
-1.04575e-45
-2.54028e-45
-6.11127e-45
-1.45608e-44
-3.43604e-44
-8.03092e-44
-1.85924e-43
-4.26386e-43
-9.68758e-43
-2.18087e-42
-4.86532e-42
-1.07583e-41
-2.35837e-41
-5.12646e-41
-1.10527e-40
-2.36414e-40
-5.01817e-40
-1.05729e-39
-2.21167e-39
-4.5942e-39
-9.47827e-39
-1.9423e-38
-3.95348e-38
-7.99266e-38
-1.60466e-37
-3.19847e-37
-6.3273e-37
-1.2417e-36
-2.41604e-36
-4.65809e-36
-8.89243e-36
-1.67958e-35
-3.13595e-35
-5.7825e-35
-1.05193e-34
-1.88573e-34
-3.32683e-34
-5.76761e-34
-9.80898e-34
-1.63309e-33
-2.65486e-33
-4.20033e-33
-6.43912e-33
-9.50572e-33
-1.33887e-32
-1.77232e-32
-2.14449e-32
-2.22825e-32
-1.6126e-32
3.52957e-33
4.55376e-32
1.19337e-31
2.29432e-31
3.62826e-31
4.6493e-31
3.99364e-31
-1.0919e-31
-1.53681e-30
-4.58121e-30
-1.00232e-29
-1.81657e-29
-2.73192e-29
-3.03409e-29
-7.47283e-30
8.74404e-29
3.51964e-28
9.78152e-28
2.32317e-27
5.01938e-27
1.0137e-26
1.94097e-26
3.55232e-26
6.24434e-26
1.05714e-25
1.7258e-25
2.7167e-25
4.11826e-25
5.99474e-25
8.33788e-25
1.09889e-24
1.35262e-24
1.51265e-24
1.44268e-24
9.46394e-25
-2.16292e-25
-2.26419e-24
-5.23805e-24
-8.68747e-24
-1.11115e-23
-9.03921e-24
4.37541e-24
4.13538e-23
1.22121e-22
2.78021e-22
5.54648e-22
1.01398e-21
1.73366e-21
2.80051e-21
4.29373e-21
6.25197e-21
8.61682e-21
1.11448e-20
1.32812e-20
1.39942e-20
1.15762e-20
3.43983e-21
-1.40403e-20
-4.55451e-20
-9.65455e-20
-1.72549e-19
-2.77598e-19
-4.11715e-19
-5.67001e-19
-7.22193e-19
-8.35716e-19
-8.37726e-19
-6.22253e-19
-4.16231e-20
1.09327e-18
3.00172e-18
5.90404e-18
9.96596e-18
1.52075e-17
2.13688e-17
2.77311e-17
3.29042e-17
3.46083e-17
2.94239e-17
1.24722e-17
-2.28274e-17
-8.48344e-17
-1.83212e-16
-3.27118e-16
-5.2044e-16
-7.52689e-16
-9.86479e-16
-1.15806e-15
-1.18847e-15
-6.0477e-16
2.04902e-15
7.18597e-15
1.17801e-14
1.02294e-14
-7.31227e-15
-3.62589e-14
-4.86558e-14
-1.28992e-14
7.65909e-14
1.47998e-13
9.36778e-14
-1.30423e-13
-3.81902e-13
-3.622e-13
1.09808e-13
8.7378e-13
1.15038e-12
3.00948e-13
-1.65764e-12
-3.21667e-12
-2.206e-12
2.20122e-12
7.78529e-12
8.44802e-12
5.63468e-13
-1.48248e-11
-2.53682e-11
-1.65073e-11
1.77809e-11
6.09986e-11
6.89274e-11
1.37889e-11
-1.02502e-10
-2.01421e-10
-1.66448e-10
6.08844e-11
4.16448e-10
6.12187e-10
3.66613e-10
-4.3318e-10
-1.46318e-09
-1.79883e-09
-7.66106e-10
1.81692e-09
4.75586e-09
5.27596e-09
1.76012e-09
-6.15989e-09
-1.47891e-08
-1.61229e-08
-5.68302e-09
1.79039e-08
4.44891e-08
5.1507e-08
2.4674e-08
-4.2446e-08
-1.27974e-07
-1.6872e-07
-1.14396e-07
6.40959e-08
3.3119e-07
5.37077e-07
4.9593e-07
9.35283e-08
-6.76422e-07
-1.54778e-06
-1.90135e-06
-1.2959e-06
5.61443e-07
3.42096e-06
6.12059e-06
6.57382e-06
3.74856e-06
-3.31955e-06
-1.3569e-05
-2.30707e-05
-2.48411e-05
-1.57382e-05
8.08072e-06
4.45099e-05
8.27047e-05
0.000101973
8.54773e-05
1.99201e-05
-9.99132e-05
-0.00025647
-0.00040226
-0.000454622
-0.000363882
-7.6357e-05
0.000435494
0.00112444
0.00184659
0.00233165
0.00228849
0.00154393
-0.0001564
-0.00293
-0.00665747
-0.01091
-0.0148306
-0.0170453
-0.0164199
-0.0120086
-0.0022742
0.0142071
0.03857
0.0715392
0.113334
0.163616
0.221499
0.285606
0.354183
0.425242
0.496719
0.56663
0.633208
0.695003
0.750947
0.800377
0.843021
0.878952
0.908523
0.932297
0.950965
0.965276
0.975985
0.983801
0.98936
0.993209
0.9958
0.997492
0.99856
0.999212
0.999593
0.999805
0.999916
0.99997
0.999993
1
1
1
1
1
1
1
1
1
1
1
1
1
1
1
1
1
1
1
1
1
1
0.999999
1
1
1
1
1
1
0.999999
0.999997
0.999994
0.999993
0.999996
1
1.00001
1.00002
1.00002
1.00002
0.999992
0.999955
0.999917
0.999898
0.999915
0.99998
1.0001
1.00026
1.0004
1.00045
1.00036
1.00008
0.999564
0.998875
0.998153
0.99767
0.997713
0.998459
1.00016
1.00294
1.00666
1.01091
1.01483
1.01704
1.01641
1.01199
1.00224
0.985753
0.961379
0.928398
0.886593
0.836302
0.778413
0.714302
0.645723
0.574666
0.503193
0.433287
0.366717
0.30493
0.248995
0.199574
0.156939
0.121016
0.0914509
0.0676829
0.0490207
0.0347131
0.0240073
0.0161939
0.0106365
0.00678849
0.00419864
0.00250755
0.00143902
0.00078796
0.000407315
0.000195299
8.40506e-05
3.01257e-05
7.02975e-06
2.23444e-07
5.37518e-17
5.32943e-17
5.25591e-17
5.12724e-17
4.95469e-17
4.74741e-17
4.51365e-17
4.26083e-17
3.99554e-17
3.72352e-17
3.44972e-17
3.17833e-17
2.91282e-17
2.65599e-17
2.41006e-17
2.17668e-17
1.95701e-17
1.75181e-17
1.56146e-17
1.38605e-17
1.22538e-17
1.07907e-17
9.46582e-18
8.27233e-18
7.20266e-18
6.24861e-18
5.40167e-18
4.65322e-18
3.99471e-18
3.41781e-18
2.9145e-18
2.47716e-18
2.09864e-18
1.77231e-18
1.49201e-18
1.25216e-18
1.04765e-18
8.73891e-19
7.26781e-19
6.02655e-19
4.98275e-19
4.1079e-19
3.37704e-19
2.76842e-19
2.26319e-19
1.84509e-19
1.50015e-19
1.21643e-19
9.83754e-20
7.93498e-20
6.38377e-20
5.12264e-20
4.10022e-20
3.27362e-20
2.60717e-20
2.0713e-20
1.64156e-20
1.29785e-20
1.02366e-20
8.05485e-21
6.32331e-21
4.95251e-21
3.86997e-21
3.01719e-21
2.34703e-21
1.82164e-21
1.41074e-21
1.09012e-21
8.40537e-22
6.46697e-22
4.96493e-22
3.80366e-22
2.90785e-22
2.21836e-22
1.68884e-22
1.28305e-22
9.72767e-23
7.36013e-23
5.5575e-23
4.1879e-23
3.14949e-23
2.36383e-23
1.77063e-23
1.32367e-23
9.87592e-24
7.35396e-24
5.46533e-24
4.05383e-24
3.00104e-24
2.21737e-24
1.63518e-24
1.20354e-24
8.84143e-25
6.48267e-25
4.74414e-25
3.46525e-25
2.52631e-25
1.8383e-25
1.33514e-25
9.67868e-26
7.00305e-26
5.05757e-26
3.64571e-26
)
;

boundaryField
{
    sides
    {
        type            zeroGradient;
    }
    empty
    {
        type            empty;
    }
}


// ************************************************************************* //
