/*--------------------------------*- C++ -*----------------------------------*\
| =========                 |                                                 |
| \\      /  F ield         | OpenFOAM: The Open Source CFD Toolbox           |
|  \\    /   O peration     | Version:  2312                                  |
|   \\  /    A nd           | Website:  www.openfoam.com                      |
|    \\/     M anipulation  |                                                 |
\*---------------------------------------------------------------------------*/
FoamFile
{
    version     2.0;
    format      ascii;
    arch        "LSB;label=32;scalar=64";
    class       volScalarField;
    location    "4.3";
    object      T;
}
// * * * * * * * * * * * * * * * * * * * * * * * * * * * * * * * * * * * * * //

dimensions      [0 0 0 1 0 0 0];

internalField   nonuniform List<scalar> 
1000
(
0
0
0
0
0
0
0
0
0
0
0
0
0
0
0
0
0
0
0
0
0
0
0
0
0
0
0
0
0
0
0
0
0
0
0
0
0
0
0
0
0
0
0
0
0
0
0
0
0
0
0
0
0
0
0
0
0
0
0
0
0
0
0
0
0
0
0
0
0
0
0
0
0
0
0
0
0
0
0
0
0
0
0
0
0
0
0
0
0
0
0
0
0
0
0
0
0
0
0
0
0
0
0
0
0
0
0
0
0
0
0
0
0
0
0
0
0
0
0
0
0
0
0
0
0
0
0
0
0
0
0
0
0
0
0
0
0
0
0
0
0
0
0
0
0
0
0
0
0
0
0
0
0
0
0
0
0
0
0
0
0
0
0
0
0
0
0
0
0
0
0
0
0
0
0
0
0
0
0
0
0
0
0
0
0
0
0
0
0
0
0
0
0
0
0
0
0
0
0
0
0
0
0
0
0
0
0
0
0
0
0
0
0
0
0
0
0
0
0
0
0
0
0
0
0
0
0
0
0
0
0
0
0
0
0
0
0
0
0
0
0
0
0
0
0
0
0
0
0
0
0
0
0
0
0
0
0
0
0
0
0
0
0
0
0
0
0
0
0
0
0
0
0
0
0
0
0
0
0
0
0
0
0
0
0
0
0
0
0
0
0
0
0
0
0
0
0
0
0
0
0
0
0
0
0
0
0
0
0
0
0
0
0
0
0
0
0
0
0
0
0
0
0
0
0
0
0
0
0
0
0
0
0
0
0
0
0
0
0
0
0
0
0
0
0
0
0
0
0
0
0
0
0
0
0
0
0
0
0
0
0
0
0
0
0
0
0
0
0
0
0
0
0
0
0
0
0
0
0
0
0
0
0
0
0
0
0
0
0
0
0
0
0
0
0
0
0
0
0
0
0
0
0
0
0
0
0
0
0
0
0
0
0
0
0
0
0
0
0
0
0
0
0
0
0
0
0
0
0
0
0
0
0
0
0
0
0
0
0
0
0
0
0
0
0
0
0
0
0
0
1.6275e-123
4.4697e-121
6.13921e-119
5.62291e-117
3.86347e-115
2.12417e-113
9.73478e-112
3.82492e-110
1.31532e-108
4.02158e-107
1.1069e-105
2.77035e-104
6.35739e-103
1.347e-101
2.65079e-100
4.86998e-99
8.3899e-98
1.3607e-96
2.08475e-95
3.02669e-94
4.17553e-93
5.48749e-92
6.88554e-91
8.26615e-90
9.51244e-89
1.05113e-87
1.11711e-86
1.14354e-85
1.12906e-84
1.0766e-83
9.92589e-83
8.85834e-82
7.66043e-81
6.42535e-80
5.23218e-79
4.13985e-78
3.18537e-77
2.3853e-76
1.7396e-75
1.23647e-74
8.57089e-74
5.79766e-73
3.82932e-72
2.47103e-71
1.55868e-70
9.61571e-70
5.80455e-69
3.43022e-68
1.98536e-67
1.12593e-66
6.25911e-66
3.41211e-65
1.82476e-64
9.57689e-64
4.93437e-63
2.49677e-62
1.2411e-61
6.06253e-61
2.91109e-60
1.37449e-59
6.38316e-59
2.91648e-58
1.31138e-57
5.80436e-57
2.52959e-56
1.08572e-55
4.59056e-55
1.91245e-54
7.85211e-54
3.17798e-53
1.26816e-52
4.99052e-52
1.9371e-51
7.41778e-51
2.80283e-50
1.04519e-49
3.84727e-49
1.39811e-48
5.01687e-48
1.77787e-47
6.2232e-47
2.15199e-46
7.35271e-46
2.48255e-45
8.28432e-45
2.73265e-44
8.91131e-44
2.87334e-43
9.16172e-43
2.88914e-42
9.01194e-42
2.78085e-41
8.48983e-41
2.56469e-40
7.66719e-40
2.26856e-39
6.64395e-39
1.92625e-38
5.52908e-38
1.57143e-37
4.42264e-37
1.2327e-36
3.40301e-36
9.30557e-36
2.52079e-35
6.76527e-35
1.79898e-34
4.74026e-34
1.23779e-33
3.20333e-33
8.21674e-33
2.08919e-32
5.26591e-32
1.31589e-31
3.26025e-31
8.0094e-31
1.95119e-30
4.71395e-30
1.1295e-29
2.68431e-29
6.32786e-29
1.47976e-28
3.4329e-28
7.9013e-28
1.8044e-27
4.08875e-27
9.19394e-27
2.0516e-26
4.54349e-26
9.98668e-26
2.17877e-25
4.71833e-25
1.01432e-24
2.16471e-24
4.58654e-24
9.64841e-24
2.01528e-23
4.17973e-23
8.60829e-23
1.76062e-22
3.57615e-22
7.21423e-22
1.44548e-21
2.87673e-21
5.68693e-21
1.11678e-20
2.17865e-20
4.22241e-20
8.13029e-20
1.55541e-19
2.95661e-19
5.5844e-19
1.04812e-18
1.95485e-18
3.62331e-18
6.67429e-18
1.22189e-17
2.22331e-17
4.02098e-17
7.22842e-17
1.29167e-16
2.29443e-16
4.05161e-16
7.11262e-16
1.24136e-15
2.154e-15
3.71613e-15
6.37456e-15
1.08727e-14
1.84405e-14
3.11006e-14
5.21603e-14
8.69968e-14
1.44302e-13
2.38048e-13
3.90563e-13
6.37337e-13
1.03446e-12
1.67007e-12
2.68196e-12
4.28426e-12
6.80802e-12
1.07622e-11
1.69251e-11
2.64803e-11
4.12184e-11
6.38333e-11
9.8357e-11
1.50792e-10
2.30027e-10
3.49156e-10
5.27369e-10
7.92636e-10
1.18553e-09
1.76457e-09
2.61378e-09
3.85314e-09
5.65309e-09
8.25459e-09
1.19965e-08
1.73531e-08
2.49846e-08
3.58057e-08
5.10773e-08
7.25291e-08
1.02522e-07
1.44261e-07
2.0208e-07
2.81807e-07
3.91239e-07
5.40763e-07
7.44144e-07
1.01954e-06
1.39077e-06
1.88897e-06
2.5546e-06
3.44001e-06
4.61259e-06
6.1587e-06
8.18848e-06
1.08417e-05
1.42949e-05
1.87701e-05
2.4545e-05
3.19654e-05
4.14599e-05
5.35572e-05
6.89062e-05
8.83e-05
0.000112703
0.000143282
0.000181442
0.000228868
0.000287571
0.000359938
0.000448787
0.000557437
0.000689766
0.000850295
0.00104426
0.0012777
0.00155755
0.00189172
0.0022892
0.00276014
0.00331598
0.00396949
0.00473489
0.00562792
0.00666592
0.00786784
0.00925433
0.0108478
0.0126721
0.0147532
0.0171183
0.0197962
0.0228172
0.0262129
0.0300156
0.0342589
0.0389766
0.0442029
0.0499719
0.0563172
0.0632715
0.0708664
0.0791316
0.0880946
0.0977803
0.108211
0.119404
0.131374
0.14413
0.157679
0.17202
0.187147
0.203049
0.219711
0.237108
0.255213
0.273992
0.293405
0.313406
0.333946
0.354969
0.376417
0.398226
0.42033
0.442661
0.465149
0.48772
0.510303
0.532827
0.555218
0.577408
0.599329
0.620916
0.642107
0.662844
0.683074
0.702748
0.721823
0.740258
0.758022
0.775085
0.791426
0.807028
0.821879
0.835972
0.849306
0.861883
0.873712
0.884803
0.895172
0.904837
0.91382
0.922142
0.929832
0.936915
0.94342
0.949377
0.954816
0.959767
0.96426
0.968326
0.971993
0.975289
0.978243
0.98088
0.983225
0.985302
0.987132
0.988735
0.990129
0.991331
0.992356
0.993216
0.993922
0.994482
0.994903
0.99519
0.995346
0.99537
0.995261
0.995016
0.994627
0.994088
0.993387
0.992511
0.991447
0.990176
0.98868
0.986938
0.984925
0.982617
0.979986
0.977005
0.973642
0.969866
0.965645
0.960945
0.955734
0.949977
0.943642
0.936695
0.929107
0.920847
0.911889
0.902206
0.891779
0.880588
0.86862
0.855864
0.842317
0.827977
0.812851
0.796949
0.780288
0.762891
0.744786
0.726007
0.706595
0.686593
0.666054
0.64503
0.623583
0.601774
0.57967
0.557338
0.534851
0.51228
0.489696
0.467173
0.444782
0.422592
0.400671
0.379084
0.357893
0.337156
0.316926
0.297252
0.278177
0.259742
0.241978
0.224915
0.208573
0.192972
0.178121
0.164028
0.150694
0.138116
0.126287
0.115195
0.104826
0.0951601
0.0861771
0.077853
0.0701622
0.0630772
0.0565693
0.0506088
0.0451654
0.0402085
0.0357077
0.0316327
0.0279538
0.0246418
0.0216686
0.0190071
0.0166313
0.0145166
0.0126394
0.0109778
0.00951103
0.0082199
0.00708649
0.00609427
0.00522805
0.00447388
0.00381906
0.00325206
0.00276242
0.00234073
0.00197853
0.00166828
0.00140322
0.00117739
0.000985485
0.000822842
0.000685365
0.000569466
0.000472014
0.000390288
0.000321928
0.000264899
0.000217445
0.00017806
0.000145458
0.000118538
9.63687e-05
7.81573e-05
6.32356e-05
5.10403e-05
4.10987e-05
3.30146e-05
2.64576e-05
2.11525e-05
1.68711e-05
1.34245e-05
1.06567e-05
8.4397e-06
6.66818e-06
5.25616e-06
4.13343e-06
3.24293e-06
2.53834e-06
1.98222e-06
1.54434e-06
1.2004e-06
9.30903e-07
7.20243e-07
5.55972e-07
4.28181e-07
3.29007e-07
2.52225e-07
1.9292e-07
1.47224e-07
1.12096e-07
8.51558e-08
6.4544e-08
4.88107e-08
3.68295e-08
2.77267e-08
2.08269e-08
1.56091e-08
1.16725e-08
8.70917e-09
6.48373e-09
4.81624e-09
3.56968e-09
2.63992e-09
1.94802e-09
1.43431e-09
1.05375e-09
7.72466e-10
5.65032e-10
4.12401e-10
3.00346e-10
2.18263e-10
1.5827e-10
1.14519e-10
8.26842e-11
5.95706e-11
4.28262e-11
3.07225e-11
2.19926e-11
1.57098e-11
1.1198e-11
7.96511e-12
5.65356e-12
4.00438e-12
2.8303e-12
1.99626e-12
1.40505e-12
9.86864e-13
6.91697e-13
4.83805e-13
3.37693e-13
2.35219e-13
1.63503e-13
1.13418e-13
7.85132e-14
5.42391e-14
3.73931e-14
2.57266e-14
1.76639e-14
1.21034e-14
8.27649e-15
5.64813e-15
3.84667e-15
2.6145e-15
1.77345e-15
1.20054e-15
8.1108e-16
5.46868e-16
3.6799e-16
2.47129e-16
1.65634e-16
1.10794e-16
)
;

boundaryField
{
    sides
    {
        type            zeroGradient;
    }
    empty
    {
        type            empty;
    }
}


// ************************************************************************* //
