/*--------------------------------*- C++ -*----------------------------------*\
| =========                 |                                                 |
| \\      /  F ield         | OpenFOAM: The Open Source CFD Toolbox           |
|  \\    /   O peration     | Version:  2312                                  |
|   \\  /    A nd           | Website:  www.openfoam.com                      |
|    \\/     M anipulation  |                                                 |
\*---------------------------------------------------------------------------*/
FoamFile
{
    version     2.0;
    format      ascii;
    arch        "LSB;label=32;scalar=64";
    class       volScalarField;
    location    "1.6";
    object      T;
}
// * * * * * * * * * * * * * * * * * * * * * * * * * * * * * * * * * * * * * //

dimensions      [0 0 0 1 0 0 0];

internalField   nonuniform List<scalar> 
1000
(
0
0
0
0
0
0
0
0
0
0
0
0
0
0
0
0
0
0
0
0
0
0
0
0
0
0
0
0
0
0
0
0
0
0
0
0
0
0
0
0
0
0
0
0
0
0
0
0
0
0
0
0
0
0
0
0
0
0
0
0
0
0
0
0
0
0
0
0
0
0
0
0
0
0
0
0
0
0
0
0
0
0
0
0
0
0
0
0
0
0
0
0
0
0
0
0
0
0
0
0
0
0
0
0
0
0
0
0
0
0
0
0
0
0
0
0
0
0
0
0
0
0
0
0
0
0
0
0
0
0
0
0
0
0
0
0
0
0
0
0
0
0
0
0
0
0
0
0
0
0
0
0
0
0
0
0
0
0
0
0
0
0
0
0
0
0
0
0
0
0
0
0
0
0
0
0
0
0
0
0
0
0
0
0
0
0
0
0
0
0
0
0
0
0
0
0
0
0
0
0
0
0
0
0
0
0
0
0
0
0
0
0
0
0
0
0
0
0
0
0
0
0
0
0
0
0
0
0
0
0
0
0
0
0
0
0
0
0
0
0
0
0
0
0
0
0
0
0
0
0
0
0
0
0
0
0
0
0
0
0
0
0
0
0
0
0
0
0
1.72923e-322
3.0889e-320
4.49885e-318
6.51637e-316
9.39136e-314
1.34668e-311
1.9213e-309
2.72717e-307
3.85123e-305
5.41057e-303
7.56187e-301
1.05134e-298
1.45402e-296
2.00031e-294
2.7372e-292
3.72551e-290
5.04333e-288
6.79027e-286
9.09242e-284
1.21082e-281
1.6035e-279
2.1117e-277
2.76538e-275
3.60096e-273
4.66237e-271
6.00209e-269
7.68226e-267
9.7757e-265
1.23669e-262
1.5553e-260
1.94439e-258
2.41632e-256
2.98475e-254
3.66459e-252
4.47183e-250
5.42339e-248
6.53673e-246
7.82953e-244
9.31912e-242
1.1022e-239
1.29529e-237
1.51243e-235
1.75456e-233
2.02217e-231
2.31529e-229
2.63334e-227
2.9751e-225
3.33862e-223
3.72115e-221
4.11917e-219
4.52836e-217
4.94363e-215
5.3592e-213
5.76871e-211
6.16532e-209
6.54192e-207
6.8913e-205
7.20637e-203
7.48039e-201
7.7072e-199
7.88144e-197
7.99876e-195
8.05599e-193
8.05128e-191
7.98418e-189
7.85571e-187
7.66828e-185
7.4257e-183
7.13298e-181
6.79621e-179
6.42231e-177
6.01881e-175
5.59358e-173
5.15459e-171
4.70965e-169
4.26615e-167
3.83089e-165
3.4099e-163
3.00832e-161
2.63031e-159
2.27903e-157
1.95665e-155
1.66439e-153
1.4026e-151
1.17086e-149
9.68111e-148
7.92774e-146
6.42882e-144
5.16207e-142
4.10374e-140
3.22961e-138
2.51585e-136
1.93969e-134
1.47993e-132
1.11727e-130
8.34499e-129
6.16584e-127
4.50607e-125
3.25676e-123
2.32753e-121
1.64462e-119
1.14877e-117
7.9311e-116
5.4113e-114
3.64813e-112
2.42979e-110
1.59855e-108
1.03866e-106
6.66391e-105
4.22105e-103
2.63917e-101
1.62851e-99
9.91526e-98
5.95557e-96
3.52826e-94
2.06122e-92
1.18719e-90
6.7399e-89
3.77072e-87
2.0784e-85
1.12841e-83
6.03285e-82
3.17532e-80
1.64492e-78
8.38444e-77
4.2039e-75
2.07276e-73
1.00469e-71
4.78593e-70
2.23978e-68
1.02945e-66
4.64521e-65
2.05708e-63
8.9367e-62
3.80723e-60
1.58989e-58
6.50525e-57
2.60679e-55
1.02256e-53
3.92461e-52
1.47302e-50
5.40374e-49
1.93645e-47
6.77471e-46
2.31248e-44
7.69631e-43
2.4958e-41
7.88034e-40
2.42078e-38
7.22923e-37
2.09692e-35
5.90247e-34
1.61074e-32
4.25712e-31
1.08849e-29
2.68936e-28
6.4127e-27
1.47372e-25
3.25945e-24
6.927e-23
1.41215e-21
2.75648e-20
5.1415e-19
9.14388e-18
1.54677e-16
2.48208e-15
3.76714e-14
5.38984e-13
7.2426e-12
9.10214e-11
1.06474e-09
1.15295e-08
1.14834e-07
1.04421e-06
8.59225e-06
6.32995e-05
0.000412106
0.00233291
0.0112503
0.0450133
0.144402
0.355803
0.644197
0.855598
0.954987
0.98875
0.997667
0.999588
0.999937
0.999991
0.999999
1
1
1
1
1
1
1
1
1
1
1
1
1
1
1
1
1
1
1
1
1
1
1
1
1
1
1
1
1
1
1
1
1
1
1
1
1
1
1
1
1
1
1
1
1
1
1
1
1
1
1
1
1
1
1
1
1
1
1
1
1
1
1
1
1
1
1
1
1
1
1
1
1
1
1
1
1
1
1
1
1
1
0.999999
0.999991
0.999937
0.999588
0.997667
0.98875
0.954987
0.855598
0.644197
0.355803
0.144402
0.0450133
0.0112503
0.00233291
0.000412106
6.32995e-05
8.59225e-06
1.04421e-06
1.14834e-07
1.15295e-08
1.06474e-09
9.10214e-11
7.2426e-12
5.38984e-13
3.76714e-14
2.48208e-15
1.54677e-16
9.14388e-18
5.1415e-19
2.75648e-20
1.41215e-21
6.927e-23
3.25945e-24
1.47372e-25
6.4127e-27
2.68936e-28
1.08849e-29
4.25712e-31
1.61074e-32
5.90247e-34
2.09692e-35
7.22923e-37
2.42078e-38
7.88034e-40
2.4958e-41
7.69631e-43
2.31248e-44
6.77471e-46
1.93645e-47
5.40374e-49
1.47302e-50
3.92461e-52
1.02256e-53
2.60679e-55
6.50525e-57
1.58989e-58
3.80723e-60
8.9367e-62
2.05708e-63
4.64521e-65
1.02945e-66
2.23978e-68
4.78593e-70
1.00469e-71
2.07276e-73
4.2039e-75
8.38444e-77
1.64492e-78
3.17532e-80
6.03285e-82
1.12841e-83
2.0784e-85
3.77072e-87
6.7399e-89
1.18719e-90
2.06122e-92
3.52826e-94
5.95557e-96
9.91526e-98
1.62851e-99
2.63917e-101
4.22105e-103
6.66391e-105
1.03866e-106
1.59855e-108
2.42979e-110
3.64813e-112
5.4113e-114
7.9311e-116
1.14877e-117
1.64462e-119
2.32753e-121
3.25676e-123
4.50607e-125
6.16584e-127
8.34499e-129
1.11727e-130
1.47993e-132
1.93969e-134
2.51585e-136
3.22961e-138
4.10374e-140
5.16207e-142
6.42882e-144
7.92774e-146
9.68111e-148
1.17086e-149
1.4026e-151
1.66439e-153
1.95665e-155
2.27903e-157
2.63031e-159
3.00832e-161
3.4099e-163
3.83089e-165
4.26615e-167
4.70965e-169
5.15459e-171
5.59358e-173
6.01881e-175
6.42231e-177
6.79621e-179
7.13298e-181
7.4257e-183
7.66828e-185
7.85571e-187
7.98418e-189
8.05128e-191
8.05599e-193
7.99876e-195
7.88144e-197
7.7072e-199
7.48039e-201
7.20637e-203
6.8913e-205
6.54192e-207
6.16532e-209
5.76871e-211
5.3592e-213
4.94363e-215
4.52836e-217
4.11917e-219
3.72115e-221
3.33862e-223
2.9751e-225
2.63334e-227
2.31529e-229
2.02217e-231
1.75456e-233
1.51243e-235
1.29529e-237
1.1022e-239
9.31912e-242
7.82953e-244
6.53673e-246
5.42339e-248
4.47183e-250
3.66459e-252
2.98475e-254
2.41632e-256
1.94439e-258
1.5553e-260
1.23669e-262
9.7757e-265
7.68226e-267
6.00209e-269
4.66237e-271
3.60096e-273
2.76538e-275
2.1117e-277
1.6035e-279
1.21082e-281
9.09242e-284
6.79027e-286
5.04333e-288
3.72551e-290
2.7372e-292
2.00031e-294
1.45402e-296
1.05134e-298
7.56187e-301
5.41057e-303
3.85123e-305
2.72717e-307
1.9213e-309
1.34668e-311
9.39136e-314
6.51637e-316
4.49885e-318
3.0889e-320
1.72923e-322
0
0
0
0
0
0
0
0
0
0
0
0
0
0
0
0
0
0
0
0
0
0
0
0
0
0
0
0
0
0
0
0
0
0
0
0
0
0
0
0
0
0
0
0
0
0
0
0
0
0
0
0
0
0
0
0
0
0
0
0
0
0
0
0
0
0
0
0
0
0
0
0
0
0
0
0
0
0
0
0
0
0
0
0
0
0
0
0
0
0
0
0
0
0
0
0
0
0
0
0
0
0
0
0
0
0
0
0
0
0
0
0
0
0
0
0
0
0
0
0
0
0
0
0
0
0
0
0
0
0
0
0
0
0
0
0
0
0
0
0
0
0
0
0
0
0
0
0
0
0
0
0
0
0
0
0
0
0
0
0
0
0
0
0
0
0
0
0
0
0
0
0
0
0
0
0
0
0
0
0
0
0
0
0
0
0
0
0
0
0
0
0
0
0
0
0
0
0
0
0
0
0
0
0
0
0
0
0
0
0
0
0
0
0
0
0
0
0
0
0
0
0
0
0
0
0
0
0
0
0
0
0
0
0
0
0
0
0
0
0
0
0
0
0
0
0
0
0
0
0
0
0
0
0
0
0
0
0
0
0
0
0
0
0
0
0
0
0
)
;

boundaryField
{
    sides
    {
        type            zeroGradient;
    }
    empty
    {
        type            empty;
    }
}


// ************************************************************************* //
