/*--------------------------------*- C++ -*----------------------------------*\
| =========                 |                                                 |
| \\      /  F ield         | OpenFOAM: The Open Source CFD Toolbox           |
|  \\    /   O peration     | Version:  2312                                  |
|   \\  /    A nd           | Website:  www.openfoam.com                      |
|    \\/     M anipulation  |                                                 |
\*---------------------------------------------------------------------------*/
FoamFile
{
    version     2.0;
    format      ascii;
    arch        "LSB;label=32;scalar=64";
    class       volScalarField;
    location    "4.3";
    object      T;
}
// * * * * * * * * * * * * * * * * * * * * * * * * * * * * * * * * * * * * * //

dimensions      [0 0 0 1 0 0 0];

internalField   nonuniform List<scalar> 
1000
(
6.94782e-75
1.04595e-74
1.93916e-74
3.83287e-74
7.69598e-74
1.5498e-73
3.12019e-73
6.27539e-73
1.26059e-72
2.52904e-72
5.06742e-72
1.01406e-71
2.02666e-71
4.04522e-71
8.06393e-71
1.60544e-70
3.19213e-70
6.33882e-70
1.25712e-69
2.48991e-69
4.92528e-69
9.73005e-69
1.91972e-68
3.78265e-68
7.44375e-68
1.46293e-67
2.87137e-67
5.62846e-67
1.10185e-66
2.15423e-66
4.20623e-66
8.2021e-66
1.59731e-65
3.10659e-65
6.03405e-65
1.17048e-64
2.2675e-64
4.38691e-64
8.47613e-64
1.63555e-63
3.15179e-63
6.06563e-63
1.16579e-62
2.23763e-62
4.28924e-62
8.21101e-62
1.56977e-61
2.99706e-61
5.7145e-61
1.08813e-60
2.06921e-60
3.92959e-60
7.45263e-60
1.41153e-59
2.66986e-59
5.04317e-59
9.51339e-59
1.79218e-58
3.37168e-58
6.33466e-58
1.18854e-57
2.227e-57
4.16714e-57
7.78695e-57
1.45315e-56
2.70808e-56
5.03992e-56
9.36691e-56
1.73851e-55
3.22231e-55
5.96437e-55
1.10248e-54
2.03508e-54
3.75144e-54
6.9059e-54
1.26954e-53
2.33066e-53
4.2728e-53
7.82258e-53
1.43018e-52
2.61114e-52
4.76072e-52
8.66792e-52
1.576e-51
2.86153e-51
5.18844e-51
9.39451e-51
1.69867e-50
3.06718e-50
5.53052e-50
9.95837e-50
1.79063e-49
3.21526e-49
5.76528e-49
1.03233e-48
1.84589e-48
3.296e-48
5.87705e-48
1.04646e-47
1.86069e-47
3.3038e-47
5.85791e-47
1.03719e-46
1.83385e-46
3.23784e-46
5.70863e-46
1.00507e-45
1.76702e-45
3.10222e-45
5.43859e-45
9.52103e-45
1.66442e-44
2.90553e-44
5.06485e-44
8.81636e-44
1.53247e-43
2.65995e-43
4.61034e-43
7.97942e-43
1.37907e-42
2.38001e-42
4.10153e-42
7.05813e-42
1.21285e-41
2.08113e-41
3.56588e-41
6.10106e-41
1.04236e-40
1.77828e-40
3.02938e-40
5.15322e-40
8.75333e-40
1.48469e-39
2.5146e-39
4.25276e-39
7.18189e-39
1.21108e-38
2.03927e-38
3.4288e-38
5.7567e-38
9.65095e-38
1.61559e-37
2.70056e-37
4.50754e-37
7.51256e-37
1.25025e-36
2.07763e-36
3.44745e-36
5.712e-36
9.45011e-36
1.56115e-35
2.57519e-35
4.24162e-35
6.97607e-35
1.14563e-34
1.87861e-34
3.07596e-34
5.02898e-34
8.20981e-34
1.33825e-33
2.1782e-33
3.54003e-33
5.74472e-33
9.30852e-33
1.50606e-32
2.43307e-32
3.92477e-32
6.32154e-32
1.01667e-31
1.63261e-31
2.61778e-31
4.19111e-31
6.69993e-31
1.06944e-30
1.70446e-30
2.71244e-30
4.31e-30
6.83813e-30
1.08327e-29
1.71349e-29
2.70623e-29
4.26765e-29
6.71973e-29
1.05646e-28
1.65842e-28
2.5994e-28
4.06808e-28
6.35685e-28
9.91815e-28
1.5451e-27
2.40334e-27
3.73258e-27
5.78811e-27
8.96187e-27
1.38546e-26
2.13855e-26
3.29593e-26
5.07186e-26
7.7927e-26
1.19547e-25
1.83113e-25
2.80044e-25
4.27626e-25
6.51973e-25
9.92481e-25
1.50849e-24
2.28922e-24
3.46864e-24
5.24754e-24
7.92641e-24
1.19542e-23
1.80008e-23
2.70635e-23
4.06255e-23
6.08885e-23
9.11159e-23
1.36136e-22
2.03083e-22
3.02478e-22
4.49814e-22
6.67869e-22
9.90074e-22
1.46542e-21
2.16558e-21
3.19524e-21
4.70705e-21
6.92326e-21
1.01669e-20
1.49066e-20
2.18215e-20
3.18937e-20
4.65413e-20
6.78086e-20
9.86379e-20
1.43257e-19
2.07729e-19
3.00739e-19
4.34705e-19
6.27348e-19
9.03924e-19
1.30036e-18
1.8677e-18
2.67828e-18
3.83454e-18
5.48123e-18
7.82257e-18
1.11462e-17
1.58566e-17
2.25216e-17
3.1937e-17
4.52161e-17
6.3914e-17
9.01992e-17
1.2709e-16
1.78783e-16
2.51097e-16
3.52094e-16
4.92921e-16
6.88965e-16
9.6143e-16
1.33949e-15
1.8632e-15
2.5875e-15
3.58756e-15
4.96612e-15
6.86331e-15
9.46996e-15
1.30455e-14
1.79419e-14
2.46363e-14
3.37736e-14
4.62248e-14
6.31639e-14
8.61704e-14
1.17366e-13
1.59595e-13
2.16667e-13
2.9367e-13
3.97392e-13
5.36874e-13
7.24133e-13
9.75117e-13
1.31095e-12
1.75958e-12
2.35789e-12
3.15448e-12
4.21331e-12
5.61836e-12
7.47972e-12
9.9415e-12
1.31919e-11
1.74764e-11
2.31146e-11
3.05218e-11
4.02366e-11
5.29567e-11
6.95839e-11
9.12817e-11
1.19549e-10
1.56313e-10
2.04048e-10
2.65923e-10
3.45992e-10
4.4943e-10
5.82833e-10
7.54592e-10
9.75361e-10
1.25865e-09
1.62154e-09
2.08563e-09
2.67812e-09
3.43327e-09
4.39411e-09
5.61459e-09
7.16224e-09
9.12145e-09
1.15975e-08
1.47213e-08
1.86557e-08
2.36026e-08
2.98121e-08
3.75931e-08
4.73268e-08
5.94824e-08
7.46369e-08
9.34977e-08
1.16931e-07
1.45997e-07
1.81987e-07
2.26473e-07
2.8137e-07
3.48996e-07
4.32162e-07
5.34263e-07
6.59395e-07
8.12491e-07
9.9948e-07
1.22747e-06
1.50499e-06
1.8422e-06
2.25125e-06
2.74658e-06
3.34537e-06
4.06799e-06
4.93853e-06
5.98548e-06
7.24243e-06
8.74888e-06
1.05513e-05
1.2704e-05
1.52708e-05
1.83259e-05
2.1956e-05
2.62619e-05
3.13607e-05
3.73877e-05
4.44998e-05
5.28778e-05
6.27298e-05
7.42954e-05
8.78488e-05
0.000103704
0.000122221
0.000143808
0.000168931
0.000198117
0.000231967
0.000271156
0.000316448
0.000368702
0.000428885
0.000498078
0.000577493
0.000668481
0.000772548
0.000891365
0.00102679
0.00118087
0.00135587
0.0015543
0.00177888
0.00203263
0.00231883
0.00264108
0.00300327
0.00340966
0.00386482
0.00437374
0.00494177
0.00557466
0.00627858
0.00706015
0.0079264
0.00888484
0.00994342
0.0111106
0.0123951
0.0138065
0.0153545
0.0170492
0.0189015
0.0209224
0.0231233
0.0255162
0.0281131
0.0309266
0.0339694
0.0372544
0.0407946
0.0446032
0.0486933
0.0530781
0.0577704
0.0627831
0.0681287
0.0738191
0.0798661
0.0862807
0.0930732
0.100253
0.10783
0.115811
0.124202
0.133011
0.14224
0.151894
0.161973
0.172479
0.183409
0.194762
0.206532
0.218714
0.2313
0.24428
0.257643
0.271376
0.285464
0.299892
0.314641
0.329692
0.345024
0.360615
0.376442
0.392479
0.4087
0.42508
0.441589
0.458201
0.474886
0.491615
0.508357
0.525085
0.541768
0.558377
0.574883
0.591257
0.607473
0.623502
0.639319
0.654899
0.670218
0.685254
0.699985
0.714391
0.728455
0.742159
0.755488
0.768429
0.780969
0.793099
0.804809
0.816093
0.826944
0.837358
0.847334
0.856869
0.865963
0.874617
0.882833
0.890616
0.897968
0.904894
0.9114
0.917493
0.923178
0.928462
0.933352
0.937856
0.94198
0.945732
0.949118
0.952145
0.954819
0.957146
0.95913
0.960776
0.962089
0.96307
0.963723
0.964049
0.964049
0.963723
0.96307
0.962089
0.960776
0.95913
0.957146
0.954819
0.952145
0.949118
0.945732
0.94198
0.937856
0.933352
0.928462
0.923178
0.917493
0.9114
0.904894
0.897968
0.890616
0.882833
0.874617
0.865963
0.856869
0.847334
0.837358
0.826944
0.816093
0.804809
0.793099
0.780969
0.768429
0.755488
0.742159
0.728455
0.714391
0.699985
0.685254
0.670218
0.654899
0.639319
0.623502
0.607473
0.591257
0.574883
0.558377
0.541768
0.525085
0.508357
0.491615
0.474886
0.458201
0.441589
0.42508
0.4087
0.392479
0.376442
0.360615
0.345024
0.329692
0.314641
0.299892
0.285464
0.271376
0.257643
0.24428
0.2313
0.218714
0.206532
0.194762
0.183409
0.172479
0.161973
0.151894
0.14224
0.133011
0.124202
0.115811
0.10783
0.100253
0.0930732
0.0862807
0.0798661
0.0738191
0.0681287
0.0627831
0.0577704
0.0530781
0.0486933
0.0446032
0.0407946
0.0372544
0.0339694
0.0309266
0.0281131
0.0255162
0.0231233
0.0209224
0.0189015
0.0170492
0.0153545
0.0138065
0.0123951
0.0111106
0.00994342
0.00888484
0.0079264
0.00706015
0.00627858
0.00557466
0.00494177
0.00437374
0.00386482
0.00340966
0.00300327
0.00264108
0.00231883
0.00203263
0.00177888
0.0015543
0.00135587
0.00118087
0.00102679
0.000891365
0.000772548
0.000668481
0.000577493
0.000498078
0.000428885
0.000368702
0.000316448
0.000271156
0.000231967
0.000198117
0.000168931
0.000143808
0.000122221
0.000103704
8.78488e-05
7.42954e-05
6.27298e-05
5.28778e-05
4.44998e-05
3.73877e-05
3.13607e-05
2.62619e-05
2.1956e-05
1.83259e-05
1.52708e-05
1.2704e-05
1.05513e-05
8.74888e-06
7.24243e-06
5.98548e-06
4.93853e-06
4.06799e-06
3.34537e-06
2.74658e-06
2.25125e-06
1.8422e-06
1.50499e-06
1.22747e-06
9.9948e-07
8.12491e-07
6.59395e-07
5.34263e-07
4.32162e-07
3.48996e-07
2.8137e-07
2.26473e-07
1.81987e-07
1.45997e-07
1.16931e-07
9.34977e-08
7.46369e-08
5.94824e-08
4.73268e-08
3.75931e-08
2.98121e-08
2.36026e-08
1.86557e-08
1.47213e-08
1.15975e-08
9.12145e-09
7.16224e-09
5.61459e-09
4.39411e-09
3.43327e-09
2.67812e-09
2.08563e-09
1.62154e-09
1.25865e-09
9.75361e-10
7.54592e-10
5.82833e-10
4.4943e-10
3.45992e-10
2.65923e-10
2.04048e-10
1.56313e-10
1.19549e-10
9.12817e-11
6.95839e-11
5.29567e-11
4.02366e-11
3.05218e-11
2.31146e-11
1.74764e-11
1.31919e-11
9.9415e-12
7.47972e-12
5.61836e-12
4.21331e-12
3.15448e-12
2.35789e-12
1.75958e-12
1.31095e-12
9.75117e-13
7.24133e-13
5.36874e-13
3.97392e-13
2.9367e-13
2.16667e-13
1.59595e-13
1.17366e-13
8.61704e-14
6.31639e-14
4.62248e-14
3.37736e-14
2.46363e-14
1.79419e-14
1.30455e-14
9.46996e-15
6.86331e-15
4.96612e-15
3.58756e-15
2.5875e-15
1.8632e-15
1.33949e-15
9.6143e-16
6.88965e-16
4.92921e-16
3.52094e-16
2.51097e-16
1.78783e-16
1.2709e-16
9.01992e-17
6.3914e-17
4.52161e-17
3.1937e-17
2.25216e-17
1.58566e-17
1.11462e-17
7.82257e-18
5.48123e-18
3.83454e-18
2.67828e-18
1.8677e-18
1.30036e-18
9.03924e-19
6.27348e-19
4.34705e-19
3.00739e-19
2.07729e-19
1.43257e-19
9.86379e-20
6.78086e-20
4.65413e-20
3.18937e-20
2.18215e-20
1.49066e-20
1.01669e-20
6.92326e-21
4.70705e-21
3.19524e-21
2.16558e-21
1.46542e-21
9.90074e-22
6.67869e-22
4.49814e-22
3.02478e-22
2.03083e-22
1.36136e-22
9.11159e-23
6.08885e-23
4.06255e-23
2.70635e-23
1.80008e-23
1.19542e-23
7.92641e-24
5.24754e-24
3.46864e-24
2.28922e-24
1.50849e-24
9.92481e-25
6.51973e-25
4.27626e-25
2.80044e-25
1.83113e-25
1.19547e-25
7.7927e-26
5.07186e-26
3.29593e-26
2.13855e-26
1.38546e-26
8.96187e-27
5.78811e-27
3.73258e-27
2.40334e-27
1.5451e-27
9.91815e-28
6.35685e-28
4.06808e-28
2.5994e-28
1.65842e-28
1.05646e-28
6.71973e-29
4.26765e-29
2.70623e-29
1.71349e-29
1.08327e-29
6.83813e-30
4.31e-30
2.71244e-30
1.70446e-30
1.06944e-30
6.69993e-31
4.19111e-31
2.61778e-31
1.63261e-31
1.01667e-31
6.32154e-32
3.92477e-32
2.43307e-32
1.50606e-32
9.30852e-33
5.74472e-33
3.54003e-33
2.1782e-33
1.33825e-33
8.20981e-34
5.02898e-34
3.07596e-34
1.87861e-34
1.14563e-34
6.97607e-35
4.24162e-35
2.57519e-35
1.56115e-35
9.45011e-36
5.712e-36
3.44745e-36
2.07763e-36
1.25025e-36
7.51256e-37
4.50754e-37
2.70056e-37
1.61559e-37
9.65095e-38
5.7567e-38
3.4288e-38
2.03927e-38
1.21108e-38
7.18189e-39
4.25276e-39
2.5146e-39
1.48469e-39
8.75333e-40
5.15322e-40
3.02938e-40
1.77828e-40
1.04236e-40
6.10106e-41
3.56588e-41
2.08113e-41
1.21285e-41
7.05813e-42
4.10153e-42
2.38001e-42
1.37907e-42
7.97942e-43
4.61034e-43
2.65995e-43
1.53247e-43
8.81636e-44
5.06485e-44
2.90553e-44
1.66442e-44
9.52103e-45
5.43859e-45
3.10222e-45
1.76702e-45
1.00507e-45
5.70863e-46
3.23784e-46
1.83385e-46
1.03719e-46
5.85791e-47
3.3038e-47
1.86069e-47
1.04646e-47
5.87705e-48
3.296e-48
1.84589e-48
1.03233e-48
5.76528e-49
3.21526e-49
1.79063e-49
9.95837e-50
5.53052e-50
3.06718e-50
1.69867e-50
9.39451e-51
5.18844e-51
2.86153e-51
1.576e-51
8.66792e-52
4.76072e-52
2.61114e-52
1.43018e-52
7.82258e-53
4.2728e-53
2.33066e-53
1.26954e-53
6.9059e-54
3.75144e-54
2.03508e-54
1.10248e-54
5.96437e-55
3.22231e-55
1.73851e-55
9.36691e-56
5.03992e-56
2.70808e-56
1.45315e-56
7.78695e-57
4.16714e-57
2.227e-57
1.18854e-57
6.33466e-58
3.37168e-58
1.79218e-58
9.51339e-59
5.04317e-59
2.66986e-59
1.41153e-59
7.45263e-60
3.92959e-60
2.06921e-60
1.08813e-60
5.7145e-61
2.99706e-61
1.56977e-61
8.21101e-62
4.28924e-62
2.23763e-62
1.16579e-62
6.06563e-63
3.15179e-63
1.63555e-63
8.47613e-64
4.38691e-64
2.2675e-64
1.17048e-64
6.03405e-65
3.10659e-65
1.59731e-65
8.2021e-66
4.20623e-66
2.15423e-66
1.10185e-66
5.62846e-67
2.87137e-67
1.46293e-67
7.44375e-68
3.78265e-68
1.91972e-68
9.73005e-69
4.92528e-69
2.48991e-69
1.25712e-69
6.33882e-70
3.19213e-70
1.60544e-70
8.06393e-71
4.04522e-71
2.02666e-71
1.01406e-71
5.06742e-72
2.52904e-72
1.26059e-72
6.27539e-73
3.12019e-73
1.5498e-73
7.69598e-74
3.83287e-74
1.93916e-74
1.04595e-74
6.94782e-75
)
;

boundaryField
{
    sides
    {
        type            zeroGradient;
    }
    empty
    {
        type            empty;
    }
}


// ************************************************************************* //
