/*--------------------------------*- C++ -*----------------------------------*\
| =========                 |                                                 |
| \\      /  F ield         | OpenFOAM: The Open Source CFD Toolbox           |
|  \\    /   O peration     | Version:  2312                                  |
|   \\  /    A nd           | Website:  www.openfoam.com                      |
|    \\/     M anipulation  |                                                 |
\*---------------------------------------------------------------------------*/
FoamFile
{
    version     2.0;
    format      ascii;
    arch        "LSB;label=32;scalar=64";
    class       volScalarField;
    location    "2.3";
    object      T;
}
// * * * * * * * * * * * * * * * * * * * * * * * * * * * * * * * * * * * * * //

dimensions      [0 0 0 1 0 0 0];

internalField   nonuniform List<scalar> 
1000
(
0
0
0
0
0
0
0
0
0
0
0
0
0
0
0
0
0
0
0
0
0
0
0
0
0
0
0
0
0
0
0
0
0
0
0
0
0
0
0
0
0
0
0
0
0
0
0
0
0
0
0
0
0
0
0
0
0
0
0
0
0
0
0
0
0
0
0
0
0
0
0
0
0
0
0
0
0
0
0
0
0
0
0
0
0
0
0
0
0
0
0
0
0
0
0
0
0
0
0
0
0
0
0
0
0
0
0
0
0
0
0
0
0
0
0
0
0
0
0
0
0
0
0
0
0
0
0
0
0
0
0
0
0
0
0
0
0
0
0
0
0
0
0
0
0
0
0
0
0
0
0
0
0
0
0
0
0
0
0
0
0
0
0
0
0
0
0
0
0
0
0
0
0
0
0
0
0
0
0
0
0
0
0
0
0
0
0
0
0
0
0
0
0
0
0
0
0
0
0
0
0
0
0
0
0
0
0
0
0
0
0
0
0
0
0
0
0
0
0
0
0
0
0
0
0
0
0
0
0
0
0
0
0
0
0
0
0
0
0
0
0
0
0
0
0
0
0
0
0
0
0
0
0
0
0
0
0
0
0
0
0
0
0
0
0
0
0
0
0
0
0
0
0
0
0
0
0
0
0
0
0
0
0
0
0
0
0
0
0
0
0
0
0
0
0
0
0
0
0
0
0
0
0
0
0
0
0
0
0
0
0
0
0
0
0
0
0
0
0
0
0
0
0
0
0
0
0
0
0
0
0
0
0
0
0
0
0
0
0
0
0
0
0
0
0
0
0
0
0
0
0
0
0
0
0
0
0
0
0
0
0
0
0
0
0
0
0
0
0
0
0
0
0
0
0
0
0
0
0
0
0
0
0
0
0
0
0
0
0
0
0
0
0
0
0
0
0
0
0
0
0
0
0
0
0
0
0
0
0
0
0
0
0
0
0
0
0
0
0
0
0
0
0
0
0
0
0
0
0
0
0
0
0
0
0
0
0
0
0
0
0
0
0
0
0
0
0
0
0
0
2.10107e-66
3.09622e-64
2.28243e-62
1.12222e-60
4.14027e-59
1.22257e-57
3.00986e-56
6.35446e-55
1.17442e-53
1.93031e-52
2.85679e-51
3.84543e-50
4.74713e-49
5.41206e-48
5.73215e-47
5.66915e-46
5.25894e-45
4.59366e-44
3.79144e-43
2.96604e-42
2.20538e-41
1.56247e-40
1.05717e-39
6.84515e-39
4.24961e-38
2.53394e-37
1.45352e-36
8.0328e-36
4.28282e-35
2.20579e-34
1.09872e-33
5.29888e-33
2.47688e-32
1.12324e-31
4.94642e-31
2.11706e-30
8.81363e-30
3.57184e-29
1.41014e-28
5.42707e-28
2.03746e-27
7.46631e-27
2.67223e-26
9.34626e-26
3.19621e-25
1.06928e-24
3.50123e-24
1.12261e-23
3.52624e-23
1.08557e-22
3.27683e-22
9.70217e-22
2.81885e-21
8.03941e-21
2.25155e-20
6.19431e-20
1.67457e-19
4.44989e-19
1.1627e-18
2.98806e-18
7.55505e-18
1.8799e-17
4.60465e-17
1.11055e-16
2.63798e-16
6.17307e-16
1.42342e-15
3.23492e-15
7.24758e-15
1.6011e-14
3.48841e-14
7.49743e-14
1.58987e-13
3.32703e-13
6.87199e-13
1.40126e-12
2.82127e-12
5.60966e-12
1.10171e-11
2.13753e-11
4.0977e-11
7.76283e-11
1.45352e-10
2.69035e-10
4.9232e-10
8.90843e-10
1.59416e-09
2.82161e-09
4.94036e-09
8.55803e-09
1.4669e-08
2.48824e-08
4.17739e-08
6.9421e-08
1.1421e-07
1.86035e-07
3.00065e-07
4.79306e-07
7.58293e-07
1.18833e-06
1.84484e-06
2.83757e-06
4.32465e-06
6.5315e-06
9.77638e-06
1.45041e-05
2.133e-05
3.10975e-05
4.49503e-05
6.44252e-05
9.15661e-05
0.000129065
0.000180435
0.000250212
0.0003442
0.000469749
0.000636082
0.000854655
0.00113956
0.00150795
0.00198052
0.00258198
0.00334151
0.00429326
0.00547673
0.00693717
0.00872585
0.0109002
0.0135237
0.0166661
0.0204024
0.0248128
0.0299818
0.0359965
0.0429461
0.0509197
0.0600045
0.0702842
0.0818363
0.0947302
0.109025
0.124767
0.141987
0.1607
0.180903
0.202573
0.225666
0.250119
0.275847
0.302747
0.330694
0.35955
0.38916
0.419358
0.449968
0.480807
0.511692
0.542436
0.572861
0.602792
0.632064
0.660527
0.688042
0.71449
0.739766
0.763786
0.786484
0.807812
0.827744
0.846266
0.863385
0.87912
0.893506
0.906587
0.918418
0.929061
0.938586
0.947065
0.954573
0.961188
0.966985
0.972039
0.976424
0.980208
0.983458
0.986235
0.988596
0.990593
0.992275
0.993683
0.994857
0.995831
0.996636
0.997296
0.997837
0.998277
0.998633
0.99892
0.99915
0.999334
0.99948
0.999594
0.999684
0.999754
0.999806
0.999845
0.999872
0.999888
0.999894
0.99989
0.999874
0.999845
0.999801
0.999736
0.999646
0.999523
0.999358
0.999141
0.998858
0.99849
0.998018
0.997417
0.996658
0.995706
0.994523
0.993063
0.991274
0.9891
0.986476
0.983334
0.979598
0.975187
0.970018
0.964003
0.957054
0.94908
0.939995
0.929716
0.918164
0.90527
0.890975
0.875233
0.858013
0.8393
0.819097
0.797427
0.774334
0.749881
0.724153
0.697253
0.669306
0.64045
0.61084
0.580642
0.550032
0.519193
0.488308
0.457564
0.427139
0.397208
0.367936
0.339473
0.311958
0.28551
0.260234
0.236214
0.213516
0.192188
0.172256
0.153734
0.136615
0.12088
0.106494
0.0934133
0.0815824
0.0709389
0.0614142
0.0529354
0.045427
0.0388124
0.0330154
0.0279608
0.023576
0.0197915
0.0165416
0.0137648
0.0114039
0.00940661
0.00772525
0.00631675
0.00514258
0.00416848
0.00336425
0.00270344
0.00216306
0.00172324
0.00136697
0.00107971
0.000849174
0.000665022
0.000518596
0.0004027
0.000311387
0.000239767
0.000183847
0.00014038
0.000106745
8.08319e-05
6.09567e-05
4.57793e-05
3.42398e-05
2.55044e-05
1.89203e-05
1.3979e-05
1.02864e-05
7.53875e-06
5.50288e-06
4.00076e-06
2.89709e-06
2.08957e-06
1.50118e-06
1.07423e-06
7.65693e-07
5.43643e-07
3.84487e-07
2.70871e-07
1.90093e-07
1.32891e-07
9.25469e-08
6.42049e-08
4.43733e-08
3.05513e-08
2.09555e-08
1.43197e-08
9.74865e-09
6.61202e-09
4.46798e-09
3.00802e-09
2.01767e-09
1.34842e-09
8.9787e-10
5.95689e-10
3.93778e-10
2.59366e-10
1.70221e-10
1.11316e-10
7.25356e-11
4.70978e-11
3.04728e-11
1.96468e-11
1.26225e-11
8.0813e-12
5.15587e-12
3.27805e-12
2.07695e-12
1.31142e-12
8.25217e-13
5.17499e-13
3.23425e-13
2.01448e-13
1.25051e-13
7.73659e-14
4.77042e-14
2.93166e-14
1.79567e-14
1.09623e-14
6.67027e-15
4.04536e-15
2.4454e-15
1.47341e-15
8.84888e-16
5.2972e-16
3.16085e-16
1.88004e-16
1.11465e-16
6.5876e-17
3.88093e-17
2.27914e-17
1.33425e-17
7.78641e-18
4.52981e-18
2.62705e-18
1.51883e-18
8.75399e-19
5.02996e-19
2.8813e-19
1.64545e-19
9.36819e-20
5.31751e-20
3.00917e-20
1.69776e-20
9.54992e-21
5.3558e-21
2.9947e-21
1.66952e-21
9.27994e-22
5.14301e-22
2.84192e-22
1.5658e-22
8.60184e-23
4.71177e-23
2.57347e-23
1.40152e-23
7.61079e-24
4.12112e-24
2.22516e-24
1.19804e-24
6.432e-25
3.44346e-25
1.83832e-25
9.78651e-26
5.1954e-26
2.75043e-26
1.45203e-26
7.64446e-27
4.01348e-27
2.10136e-27
1.09721e-27
5.71339e-28
2.96699e-28
1.5366e-28
7.93653e-29
4.08819e-29
2.10022e-29
1.07606e-29
5.49859e-30
2.80228e-30
1.42436e-30
7.22078e-31
3.65094e-31
1.84114e-31
9.26044e-32
4.64565e-32
2.32452e-32
1.1601e-32
5.77483e-33
2.86725e-33
1.41997e-33
7.01427e-34
3.45605e-34
1.69854e-34
8.3267e-35
4.0717e-35
1.98603e-35
9.66292e-36
4.68971e-36
2.2704e-36
1.09643e-36
5.28186e-37
2.53817e-37
1.21671e-37
5.81823e-38
2.77544e-38
1.32074e-38
6.26971e-39
2.96912e-39
1.40268e-39
6.6107e-40
3.1081e-40
1.45782e-40
6.82149e-41
3.18436e-41
1.48299e-41
6.89014e-42
3.19372e-42
1.47688e-42
6.81366e-43
3.13619e-43
1.44017e-43
6.59811e-44
3.01593e-44
1.37538e-44
6.2579e-45
2.84079e-45
1.28664e-45
5.81417e-46
2.6214e-46
1.17922e-46
5.29272e-47
2.3702e-47
1.05905e-47
4.72149e-48
2.10026e-48
9.32182e-49
4.12826e-49
1.8242e-49
8.04309e-50
3.53849e-50
1.55333e-50
6.80391e-51
2.97378e-51
1.29693e-51
5.64394e-52
2.45082e-52
1.06196e-52
4.59165e-53
1.98108e-53
8.52917e-54
3.66428e-54
1.5709e-54
6.72031e-55
2.86889e-55
1.22215e-55
5.19545e-56
2.20401e-56
9.33036e-57
3.94166e-57
1.66172e-57
6.99101e-58
2.93511e-58
1.22975e-58
5.14181e-59
2.1455e-59
8.93415e-60
3.71274e-60
1.53977e-60
6.37288e-61
2.63233e-61
1.0851e-61
4.46406e-62
1.83282e-62
7.51002e-63
3.07113e-63
1.25341e-63
5.10539e-64
2.07542e-64
8.4203e-65
3.40955e-65
1.37789e-65
5.55755e-66
2.23721e-66
8.98846e-67
3.60431e-67
1.44251e-67
5.76208e-68
2.29723e-68
9.14105e-69
3.63042e-69
1.4391e-69
5.69371e-70
2.24842e-70
8.8621e-71
3.48639e-71
1.36898e-71
5.36542e-72
2.09892e-72
8.19552e-73
3.19409e-73
1.24254e-73
4.82469e-74
)
;

boundaryField
{
    sides
    {
        type            zeroGradient;
    }
    empty
    {
        type            empty;
    }
}


// ************************************************************************* //
