/*--------------------------------*- C++ -*----------------------------------*\
| =========                 |                                                 |
| \\      /  F ield         | OpenFOAM: The Open Source CFD Toolbox           |
|  \\    /   O peration     | Version:  2312                                  |
|   \\  /    A nd           | Website:  www.openfoam.com                      |
|    \\/     M anipulation  |                                                 |
\*---------------------------------------------------------------------------*/
FoamFile
{
    version     2.0;
    format      ascii;
    arch        "LSB;label=32;scalar=64";
    class       volScalarField;
    location    "4.6";
    object      T;
}
// * * * * * * * * * * * * * * * * * * * * * * * * * * * * * * * * * * * * * //

dimensions      [0 0 0 1 0 0 0];

internalField   nonuniform List<scalar> 
1000
(
0
0
0
0
0
0
0
0
0
0
0
0
0
0
0
0
0
0
0
0
0
0
0
0
0
0
0
0
0
0
0
0
0
0
0
0
0
0
0
0
0
0
0
0
0
0
0
0
0
0
0
0
0
0
0
0
0
0
0
0
0
0
0
0
0
0
0
0
0
0
0
0
0
0
0
0
0
0
0
0
0
0
0
0
0
0
0
0
0
0
0
0
0
0
0
0
0
0
0
0
0
0
0
0
0
0
0
0
0
0
0
0
0
0
0
0
0
0
0
0
0
0
0
0
0
0
0
0
0
0
0
0
0
0
0
0
0
0
0
0
0
0
0
0
0
0
0
0
0
0
0
0
0
0
0
0
0
0
0
0
0
0
0
0
0
0
0
0
0
0
0
0
0
-4.94066e-324
2.96439e-323
-4.94066e-324
2.96439e-323
-4.94066e-324
2.96439e-323
-4.94066e-324
2.96439e-323
-4.94066e-324
2.96439e-323
-4.94066e-324
2.96439e-323
-4.94066e-324
2.96439e-323
-4.94066e-324
2.96439e-323
-4.94066e-324
2.96439e-323
-4.94066e-324
2.96439e-323
-4.94066e-324
2.96439e-323
-4.94066e-324
2.96439e-323
-4.94066e-324
2.96439e-323
-4.94066e-324
2.96439e-323
-4.94066e-324
2.96439e-323
-4.94066e-324
2.96439e-323
-4.94066e-324
2.96439e-323
-4.94066e-324
2.96439e-323
-4.94066e-324
2.96439e-323
-4.94066e-324
2.96439e-323
-4.94066e-324
2.96439e-323
-4.94066e-324
2.96439e-323
-4.94066e-324
2.96439e-323
-4.94066e-324
2.96439e-323
-4.94066e-324
2.96439e-323
-4.94066e-324
2.96439e-323
-4.94066e-324
2.96439e-323
-4.94066e-324
2.96439e-323
-4.94066e-324
2.96439e-323
-4.94066e-324
2.96439e-323
-4.94066e-324
2.96439e-323
-4.94066e-324
2.96439e-323
-4.94066e-324
2.96439e-323
-4.94066e-324
2.96439e-323
-4.94066e-324
2.96439e-323
-4.94066e-324
2.96439e-323
-4.94066e-324
2.96439e-323
-4.94066e-324
2.96439e-323
-4.94066e-324
2.96439e-323
-4.94066e-324
2.96439e-323
-4.94066e-324
2.96439e-323
-4.94066e-324
2.96439e-323
-4.94066e-324
9.88131e-324
2.96439e-323
5.43472e-323
7.41098e-323
9.88131e-323
1.18576e-322
1.43279e-322
1.63042e-322
1.87745e-322
2.12448e-322
2.37152e-322
2.61855e-322
2.86558e-322
3.06321e-322
3.26083e-322
3.45846e-322
3.65609e-322
4.15015e-322
4.00193e-322
3.7549e-322
3.55727e-322
3.35965e-322
3.16202e-322
2.96439e-322
2.76677e-322
2.51973e-322
2.2727e-322
2.02567e-322
1.77864e-322
1.5316e-322
1.33398e-322
1.08694e-322
8.89318e-323
6.42285e-323
4.44659e-323
1.97626e-323
-4.94066e-324
-2.96439e-323
-4.94066e-323
-7.41098e-323
-9.38725e-323
-1.13635e-322
-1.38338e-322
-1.63042e-322
-1.87745e-322
-2.07508e-322
-2.2727e-322
-2.51973e-322
-2.71736e-322
-2.96439e-322
-3.16202e-322
-3.40905e-322
-3.65609e-322
-3.85371e-322
-4.05134e-322
-4.24896e-322
-4.496e-322
-4.74303e-322
-4.99006e-322
-5.2371e-322
-5.48413e-322
-5.73116e-322
-5.97819e-322
-6.17582e-322
-6.42285e-322
-6.62048e-322
-7.80624e-322
-8.95741e-321
-4.96398e-319
-2.49607e-317
-1.0773e-315
-4.01438e-314
-1.36665e-312
-1.84626e-311
-1.32612e-311
5.08879e-310
1.3705e-308
2.99613e-307
5.96141e-306
1.09531e-304
1.86856e-303
2.97195e-302
4.42248e-301
6.17637e-300
8.11776e-299
1.00649e-297
1.17952e-296
1.30849e-295
1.37563e-294
1.3741e-293
1.31863e-292
1.2575e-291
1.26778e-290
1.43411e-289
1.84995e-288
2.68481e-287
4.3601e-286
7.8918e-285
1.54772e-283
3.15123e-282
6.4132e-281
1.26212e-279
2.36479e-278
4.16927e-277
7.03891e-276
3.12302e-275
1.10633e-276
-7.83989e-274
-1.25687e-272
-1.70022e-271
-2.1453e-270
-2.5639e-269
-2.91511e-268
-3.16916e-267
-3.33622e-266
-3.50099e-265
-3.83846e-264
-4.59738e-263
-6.09612e-262
-8.82293e-261
-1.37752e-259
-2.33053e-258
-4.26447e-257
-8.26518e-256
-1.64e-254
-3.23605e-253
-6.1923e-252
-1.13211e-250
-2.01696e-249
-2.07904e-248
-2.13615e-248
2.0315e-247
4.05421e-246
5.87947e-245
7.83152e-244
9.85772e-243
1.17909e-241
1.34311e-240
1.45951e-239
1.51561e-238
1.50729e-237
1.44095e-236
1.33533e-235
1.22215e-234
1.1393e-233
1.12374e-232
1.23645e-231
1.65538e-230
2.87085e-229
6.1348e-228
1.43683e-226
3.39013e-225
7.69764e-224
1.65572e-222
3.43532e-221
2.96354e-220
2.09959e-220
-5.19406e-219
-1.03948e-217
-1.66259e-216
-2.45944e-215
-3.42787e-214
-4.52149e-213
-5.6585e-212
-6.73387e-211
-7.63787e-210
-8.27769e-209
-8.59702e-208
-8.59047e-207
-8.31151e-206
-7.87043e-205
-7.41754e-204
-7.11533e-203
-7.11071e-202
-7.51767e-201
-8.40971e-200
-9.82318e-199
-1.17753e-197
-1.43536e-196
-1.77695e-195
-2.23511e-194
-2.83524e-193
-3.57588e-192
-4.44088e-191
-5.56472e-190
-6.67042e-189
-1.7497e-188
1.26504e-188
6.20908e-187
9.43137e-186
1.2595e-184
1.5388e-183
1.74952e-182
2.02843e-181
2.66337e-180
3.90066e-179
5.74736e-178
7.86475e-177
9.64256e-176
1.0413e-174
9.74695e-174
8.14436e-173
7.40764e-172
9.60484e-171
1.72124e-169
3.37249e-168
6.34736e-167
1.10854e-165
1.42417e-164
2.24672e-164
-7.4319e-164
-1.31373e-162
-2.01726e-162
5.73856e-162
3.24616e-161
-1.44476e-162
-6.32174e-160
-6.78956e-159
-5.6152e-158
-3.94073e-157
-1.11574e-156
-7.68197e-157
4.9118e-156
4.41821e-155
2.24243e-154
3.59605e-154
1.10709e-154
-2.09262e-153
-1.39779e-152
-6.8401e-152
-3.05242e-151
-1.44896e-150
-9.17589e-150
-8.32964e-149
-8.95365e-148
-9.53431e-147
-9.33234e-146
-8.20051e-145
-6.42078e-144
-4.45463e-143
-2.73631e-142
-1.56497e-141
-9.85198e-141
-8.25194e-140
-9.09877e-139
-1.1338e-137
-1.46061e-136
-1.77415e-135
-5.02e-135
2.00678e-135
1.32137e-133
4.68384e-133
-7.20947e-134
-1.0815e-131
-1.41268e-130
-4.41902e-130
-9.69099e-131
4.4554e-129
2.97389e-128
1.10968e-127
2.99076e-127
9.98333e-127
6.91205e-126
7.07046e-125
7.60124e-124
8.07866e-123
5.05796e-122
5.04541e-122
-2.44337e-121
-7.20808e-121
8.78331e-121
2.62164e-119
3.05174e-118
2.7623e-117
5.44196e-117
-3.50462e-117
-1.33016e-115
-1.37886e-114
-3.43171e-114
2.09739e-115
5.73932e-113
5.99972e-112
1.54742e-111
7.47014e-113
-2.29085e-110
-2.50705e-109
-1.35856e-108
-1.33237e-108
5.75855e-108
8.31424e-107
6.63236e-106
1.18086e-105
-6.28639e-106
-2.35944e-104
-2.29972e-103
-1.40307e-102
-1.71414e-102
3.06652e-102
5.56014e-101
4.63833e-100
1.09135e-99
2.19522e-100
-1.19658e-98
-1.17027e-97
-8.79429e-97
-2.26313e-96
-9.80151e-97
1.83798e-95
1.81824e-94
1.35529e-93
3.96642e-93
2.53425e-93
-2.30719e-92
-2.3684e-91
-1.75816e-90
-6.40809e-90
-5.62155e-90
2.20817e-89
2.59385e-88
1.92739e-87
8.99191e-87
1.00701e-86
-1.4243e-86
-2.37986e-85
-1.78928e-84
-1.17236e-83
-7.33858e-83
-4.49689e-82
-2.71931e-81
-1.62621e-80
-9.62415e-80
-5.6442e-79
-3.28239e-78
-1.89455e-77
-9.58036e-77
-1.66629e-76
-4.89379e-77
1.19303e-75
9.43687e-75
5.74989e-74
3.24661e-73
1.77667e-72
9.55881e-72
5.08168e-71
2.67435e-70
1.39427e-69
7.20298e-69
3.68786e-68
1.87138e-67
9.41224e-67
4.6923e-66
2.31874e-65
1.13581e-64
5.51521e-64
2.65478e-63
1.26684e-62
5.99304e-62
2.81074e-61
1.30693e-60
6.02498e-60
2.75383e-59
1.24798e-58
5.60765e-58
2.49841e-57
1.10374e-56
4.83503e-56
2.10025e-55
9.04671e-55
3.86427e-54
1.63685e-53
6.87584e-53
2.86434e-52
1.18335e-51
4.84841e-51
1.97011e-50
7.93955e-50
3.17337e-49
1.25798e-48
4.94605e-48
1.92879e-47
7.46031e-47
2.86208e-46
1.0891e-45
4.1107e-45
1.53899e-44
5.71516e-44
2.10525e-43
7.69244e-43
2.78814e-42
1.00245e-41
3.57525e-41
1.26489e-40
4.43926e-40
1.54553e-39
5.33777e-39
1.82877e-38
6.21558e-38
2.09569e-37
7.00973e-37
2.32597e-36
7.65668e-36
2.50041e-35
8.10061e-35
2.60353e-34
8.30134e-34
2.62588e-33
8.24032e-33
2.56541e-32
7.92346e-32
2.42783e-31
7.38016e-31
2.22566e-30
6.65885e-30
1.97644e-29
5.81989e-29
1.70016e-28
4.92728e-28
1.41667e-27
4.04082e-27
1.14343e-26
3.20988e-26
8.93931e-26
2.46975e-25
6.76912e-25
1.84052e-24
4.96448e-24
1.3284e-23
3.52618e-23
9.28527e-23
2.42547e-22
6.28498e-22
1.61553e-21
4.1193e-21
1.0419e-20
2.61405e-20
6.50557e-20
1.60595e-19
3.93233e-19
9.55062e-19
2.30075e-18
5.49739e-18
1.30283e-17
3.06232e-17
7.13908e-17
1.65064e-16
3.78504e-16
8.60775e-16
1.94133e-15
4.34201e-15
9.6306e-15
2.11824e-14
4.62006e-14
9.99213e-14
2.14286e-13
4.55663e-13
9.60715e-13
2.00832e-12
4.16243e-12
8.55303e-12
1.74236e-11
3.51875e-11
7.04453e-11
1.39802e-10
2.75016e-10
5.36249e-10
1.03639e-09
1.9852e-09
3.76873e-09
7.09045e-09
1.32197e-08
2.44239e-08
4.47131e-08
8.11064e-08
1.45765e-07
2.59542e-07
4.57814e-07
7.99971e-07
1.38463e-06
2.37379e-06
4.0306e-06
6.77775e-06
1.12865e-05
1.86106e-05
3.03845e-05
4.91139e-05
7.85923e-05
0.000124492
0.000195188
0.000302882
0.000465118
0.000706772
0.00106262
0.00158059
0.00232569
0.00338478
0.00487197
0.00693464
0.00975974
0.0135798
0.0186781
0.0253925
0.0341154
0.045291
0.0594063
0.0769757
0.0985186
0.124529
0.155437
0.191566
0.233086
0.279967
0.331936
0.388451
0.448686
0.511539
0.575671
0.63956
0.701598
0.760186
0.813856
0.861381
0.901878
0.934869
0.96031
0.978566
0.990361
0.996768
0.999328
0.999934
0.999998
1
1
1
1
1
1
1
1
1
1
1
1
1
1
1
1
1
1
1
1
1
1
1
1
1
1
1
1
1
1
1
1
1
1
1
1
1
1
1
1
1
1
1
1
1
1
0.999999
0.999999
0.999998
0.999996
0.999993
0.999989
0.999981
0.99997
0.999951
0.999921
0.999875
0.999805
0.999697
0.999534
0.999293
0.998936
0.998418
0.997672
0.996613
0.995124
0.99306
0.990233
0.986411
0.98131
0.974592
0.965865
0.954684
0.940563
0.922987
0.901436
0.875418
0.844501
0.808363
0.766834
0.719945
0.667969
0.611448
0.551209
0.488354
0.424223
0.360337
0.298305
0.239726
0.186066
0.138552
0.0980671
0.0650887
0.0396595
0.021413
0.00962681
0.00322666
0.000670148
6.59536e-05
2.23094e-06
1.88492e-08
3.01927e-11
7.3591e-15
6.30159e-19
5.36861e-23
4.57361e-27
3.91067e-31
3.36206e-35
2.90605e-39
2.52236e-43
2.19472e-47
1.91133e-51
1.66411e-55
1.44757e-59
1.25785e-63
1.09193e-67
9.47222e-72
8.21356e-76
7.12115e-80
6.17433e-84
5.35421e-88
4.64388e-92
4.02844e-96
3.49498e-100
3.03236e-104
2.63103e-108
2.28279e-112
1.98059e-116
1.71833e-120
1.49076e-124
1.2933e-128
1.12197e-132
9.73341e-137
8.44398e-141
7.32538e-145
6.35499e-149
5.51316e-153
4.78286e-157
4.14929e-161
3.59965e-165
3.1228e-169
2.70912e-173
2.35023e-177
2.03888e-181
1.76877e-185
1.53445e-189
1.33116e-193
1.1548e-197
1.00181e-201
8.69079e-206
7.53935e-210
6.54046e-214
5.6739e-218
4.92214e-222
4.26998e-226
3.70421e-230
3.21341e-234
2.78763e-238
2.41826e-242
2.09783e-246
1.81985e-250
1.57871e-254
1.36951e-258
1.18804e-262
1.0306e-266
8.94034e-271
7.75559e-275
6.72783e-279
5.83626e-283
5.06282e-287
4.39188e-291
3.80984e-295
3.30493e-299
2.86693e-303
2.48697e-307
2.15737e-311
1.87144e-315
1.6232e-319
9.88131e-324
0
0
0
0
0
0
0
0
0
0
0
0
0
0
0
0
0
0
0
0
0
0
0
0
0
0
0
0
0
0
0
0
0
)
;

boundaryField
{
    sides
    {
        type            zeroGradient;
    }
    empty
    {
        type            empty;
    }
}


// ************************************************************************* //
