/*--------------------------------*- C++ -*----------------------------------*\
| =========                 |                                                 |
| \\      /  F ield         | OpenFOAM: The Open Source CFD Toolbox           |
|  \\    /   O peration     | Version:  2312                                  |
|   \\  /    A nd           | Website:  www.openfoam.com                      |
|    \\/     M anipulation  |                                                 |
\*---------------------------------------------------------------------------*/
FoamFile
{
    version     2.0;
    format      ascii;
    arch        "LSB;label=32;scalar=64";
    class       volScalarField;
    location    "1.9";
    object      T;
}
// * * * * * * * * * * * * * * * * * * * * * * * * * * * * * * * * * * * * * //

dimensions      [0 0 0 1 0 0 0];

internalField   nonuniform List<scalar> 
1000
(
0
0
0
0
0
0
0
0
0
0
0
0
0
0
0
0
0
0
0
0
0
0
0
0
0
0
0
0
0
0
0
0
0
0
0
0
0
0
0
0
0
0
0
0
0
0
0
0
0
0
0
0
0
0
0
0
0
0
0
0
0
0
0
0
0
0
0
0
0
0
0
0
0
0
0
0
0
0
0
0
0
0
0
0
0
0
0
0
0
0
0
0
0
0
0
0
0
0
0
0
0
0
0
0
0
0
0
0
0
0
0
0
0
0
0
0
0
0
0
0
0
0
0
0
0
0
0
0
0
0
0
0
0
0
0
0
0
0
0
0
0
0
0
0
0
0
0
0
0
0
0
0
0
0
0
0
0
0
0
0
0
0
0
0
0
0
0
0
0
0
0
0
0
-4.94066e-324
2.96439e-323
-4.94066e-324
2.96439e-323
-4.94066e-324
2.96439e-323
-4.94066e-324
2.96439e-323
-4.94066e-324
2.96439e-323
-4.94066e-324
2.96439e-323
-4.94066e-324
2.96439e-323
-4.94066e-324
2.96439e-323
-4.94066e-324
2.96439e-323
-4.94066e-324
2.96439e-323
-4.94066e-324
2.96439e-323
-4.94066e-324
2.96439e-323
-4.94066e-324
2.96439e-323
-4.94066e-324
2.96439e-323
-4.94066e-324
2.96439e-323
-4.94066e-324
2.96439e-323
-4.94066e-324
2.96439e-323
-4.94066e-324
2.96439e-323
-4.94066e-324
2.96439e-323
-4.94066e-324
2.96439e-323
-4.94066e-324
2.96439e-323
-4.94066e-324
2.96439e-323
-4.94066e-324
2.96439e-323
-4.94066e-324
2.96439e-323
-4.94066e-324
2.96439e-323
-4.94066e-324
2.96439e-323
-4.94066e-324
2.96439e-323
-3.50787e-322
4.68868e-321
-6.0108e-320
7.73529e-319
-9.95162e-318
1.28026e-316
-1.64707e-315
2.11898e-314
-2.72602e-313
3.50714e-312
-4.51178e-311
5.80466e-310
-7.4674e-309
9.60727e-308
-1.23592e-306
1.59009e-305
-2.04557e-304
2.63175e-303
-3.38561e-302
4.35579e-301
-5.60351e-300
7.20923e-299
-9.27432e-298
1.1932e-296
-1.53499e-295
1.97485e-294
-2.54055e-293
3.26855e-292
-4.20487e-291
5.40971e-290
-6.95952e-289
8.95349e-288
-1.15188e-286
1.48187e-285
-1.90648e-284
2.45262e-283
-3.15541e-282
4.05931e-281
-5.22252e-280
6.71852e-279
-8.64376e-278
1.11198e-276
-1.43062e-275
1.84043e-274
-2.36781e-273
3.04608e-272
-3.91895e-271
5.04154e-270
-6.48623e-269
8.34422e-268
-1.07353e-266
1.38105e-265
-1.77679e-264
2.28578e-263
-2.94073e-262
3.78321e-261
-4.86713e-260
6.26162e-259
-8.05549e-258
1.03636e-256
-1.33325e-255
1.71529e-254
-2.20665e-253
2.83897e-252
-3.6522e-251
4.69876e-250
-6.04473e-249
7.77689e-248
-1.00046e-246
1.28715e-245
-1.65585e-244
2.13035e-243
-2.74059e-242
3.52593e-241
-4.53593e-240
5.83573e-239
-7.5074e-238
9.65867e-237
-1.24255e-235
1.5986e-234
-2.05654e-233
2.64581e-232
-3.40378e-231
4.37905e-230
-5.6336e-229
7.24771e-228
-9.32414e-227
1.19956e-225
-1.54323e-224
1.98538e-223
-2.5542e-222
3.28599e-221
-4.22746e-220
5.4386e-219
-6.99685e-218
9.00139e-217
-1.15804e-215
1.48982e-214
-1.91667e-213
2.46579e-212
-3.17226e-211
4.08111e-210
-5.25039e-209
6.75461e-208
-8.68988e-207
1.11795e-205
-1.43826e-204
1.85032e-203
-2.38045e-202
3.06244e-201
-3.93986e-200
5.06863e-199
-6.52084e-198
8.38906e-197
-1.07926e-195
1.38847e-194
-1.78627e-193
2.29805e-192
-2.95643e-191
3.8035e-190
-4.89317e-189
6.29514e-188
-8.09866e-187
1.0419e-185
-1.34041e-184
1.72445e-183
-2.2185e-182
2.85412e-181
-3.67182e-180
4.72383e-179
-6.07721e-178
7.81838e-177
-1.00583e-175
1.29401e-174
-1.66475e-173
2.14172e-172
-2.75532e-171
3.54474e-170
-4.56031e-169
5.86687e-168
-7.54775e-167
9.71018e-166
-1.24923e-164
1.60712e-163
-2.06759e-162
2.65993e-161
-3.42205e-160
4.40244e-159
-5.66382e-158
7.28646e-157
-9.37414e-156
1.20598e-154
-1.55151e-153
1.996e-152
-2.56789e-151
3.30357e-150
-4.25009e-149
5.46772e-148
-7.0343e-147
9.04959e-146
-1.16424e-144
1.49779e-143
-1.92693e-142
2.47899e-141
-3.18925e-140
4.10296e-139
-5.27848e-138
6.7908e-137
-8.73636e-136
1.12394e-134
-1.44595e-133
1.86023e-132
-2.39318e-131
3.07886e-130
-3.96093e-129
5.0958e-128
-6.55571e-127
8.43402e-126
-1.08503e-124
1.39591e-123
-1.79583e-122
2.31036e-121
-2.97227e-120
3.82385e-119
-4.91938e-118
6.32883e-117
-8.14204e-116
1.04748e-114
-1.34758e-113
1.73368e-112
-2.23037e-111
2.8694e-110
-3.69148e-109
4.74913e-108
-6.10973e-107
7.86025e-106
-1.01122e-104
1.30094e-103
-1.67366e-102
2.00119e-101
2.98502e-101
-1.04096e-99
5.5263e-99
3.81768e-98
-7.14019e-97
-6.43723e-97
3.45214e-95
-3.03829e-95
-1.62756e-93
5.00329e-93
7.47417e-92
-3.71567e-91
-3.53294e-90
1.97021e-89
1.8056e-88
-8.2372e-88
-9.32162e-87
2.56957e-86
5.10693e-85
-4.45179e-85
-2.81115e-83
-1.48286e-83
1.34384e-81
2.20472e-81
-3.56869e-80
-1.98932e-79
4.92608e-79
1.30905e-77
8.83189e-78
-4.51323e-76
-1.58854e-75
5.15237e-75
1.2245e-73
1.1178e-73
-2.73509e-72
-1.92783e-71
3.02404e-72
7.90254e-70
2.69413e-69
-4.41631e-69
-1.69003e-67
-3.92367e-67
1.10513e-66
3.0652e-65
7.00658e-65
-1.63189e-64
-4.73434e-63
-1.4738e-62
1.22295e-62
5.81802e-61
2.97276e-60
9.50418e-61
-5.4277e-59
-8.19736e-58
-1.02487e-56
-1.20566e-55
-1.37226e-54
-1.28144e-53
-2.22931e-53
2.94528e-53
7.74377e-52
8.63972e-51
8.50852e-50
7.98227e-49
7.24157e-48
6.37616e-47
5.45559e-46
4.5391e-45
3.67425e-44
2.89494e-43
2.22111e-42
1.66014e-41
1.20928e-40
8.58784e-40
5.94798e-39
4.01913e-38
2.6504e-37
1.70626e-36
1.07265e-35
6.58681e-35
3.95198e-34
2.31733e-33
1.32832e-32
7.44492e-32
4.08094e-31
2.18824e-30
1.14803e-29
5.89414e-29
2.96196e-28
1.45716e-27
7.01898e-27
3.31097e-26
1.52973e-25
6.92334e-25
3.06987e-24
1.33378e-23
5.67888e-23
2.36977e-22
9.69308e-22
3.88665e-21
1.52788e-20
5.88905e-20
2.22575e-19
8.24935e-19
2.99851e-18
1.06896e-17
3.7378e-17
1.28201e-16
4.31328e-16
1.42359e-15
4.60933e-15
1.46413e-14
4.56269e-14
1.39498e-13
4.18435e-13
1.23141e-12
3.55541e-12
1.00713e-11
2.79891e-11
7.6311e-11
2.04111e-10
5.35569e-10
1.37852e-09
3.48049e-09
8.61926e-09
2.09351e-08
4.9868e-08
1.16487e-07
2.66809e-07
5.99168e-07
1.31909e-06
2.84657e-06
6.02059e-06
1.24785e-05
2.53412e-05
5.0415e-05
9.82388e-05
0.000187462
0.000350239
0.000640526
0.00114639
0.00200741
0.00343823
0.00575843
0.00942786
0.0150841
0.0235766
0.0359863
0.0536204
0.0779636
0.110573
0.152909
0.206097
0.270646
0.346162
0.431109
0.522698
0.616974
0.709127
0.794047
0.867024
0.92447
0.964529
0.987659
0.997355
0.999733
0.999991
1
1
1
1
1
1
1
1
1
1
1
1
1
1
1
1
1
1
1
1
1
1
1
1
1
1
1
1
1
1
1
1
1
1
1
1
1
1
1
1
1
1
1
1
1
1
1
1
1
1
1
1
1
1
1
1
1
1
1
1
1
1
0.999999
0.999999
0.999997
0.999994
0.999987
0.999975
0.999949
0.999902
0.999812
0.999649
0.999358
0.998852
0.99799
0.996557
0.994235
0.990562
0.9849
0.976401
0.963982
0.946336
0.921978
0.889352
0.846998
0.793792
0.729225
0.653695
0.568739
0.477146
0.382875
0.290735
0.205835
0.132883
0.0754643
0.0354304
0.0123213
0.0026393
0.00026616
9.15199e-06
7.78651e-08
1.24316e-10
2.98927e-14
2.53905e-18
2.14637e-22
1.81489e-26
1.54056e-30
1.31493e-34
1.12841e-38
9.72322e-43
8.3983e-47
7.25989e-51
6.27392e-55
5.4169e-59
4.67183e-63
4.02529e-67
3.46574e-71
2.98273e-75
2.56667e-79
2.20873e-83
1.90098e-87
1.6364e-91
1.40886e-95
1.21309e-99
1.04459e-103
8.99505e-108
7.74557e-112
6.66942e-116
5.74254e-120
4.94429e-124
4.25687e-128
3.66495e-132
3.15529e-136
2.71649e-140
2.3387e-144
2.01344e-148
1.73341e-152
1.49232e-156
1.28476e-160
1.10606e-164
9.52205e-169
8.19749e-173
7.05713e-177
6.07538e-181
5.23017e-185
4.50253e-189
3.8761e-193
3.33681e-197
2.87255e-201
2.47287e-205
2.12879e-209
1.83259e-213
1.57759e-217
1.35806e-221
1.16908e-225
1.00639e-229
8.66338e-234
7.4577e-238
6.41976e-242
5.52625e-246
4.75706e-250
4.0949e-254
3.52488e-258
3.03419e-262
2.61177e-266
2.24815e-270
1.93513e-274
1.66568e-278
1.43374e-282
1.23408e-286
1.06221e-290
9.14268e-295
7.86924e-299
6.7731e-303
5.82959e-307
5.01745e-311
4.31842e-315
3.71651e-319
2.47033e-323
0
0
0
0
0
0
0
0
0
0
0
0
0
0
0
0
0
0
0
0
0
0
0
0
0
0
0
0
0
0
0
0
0
0
0
0
0
0
0
0
0
0
0
0
0
0
0
0
0
0
0
0
0
0
0
0
0
0
0
0
0
0
0
0
0
0
0
0
0
0
0
0
0
0
0
0
0
0
0
0
0
0
0
0
0
0
0
0
0
0
0
0
0
0
0
0
0
0
0
0
0
0
0
0
0
0
0
0
0
0
0
0
0
0
0
0
0
0
0
0
0
0
0
0
0
0
0
0
0
0
0
0
0
0
0
0
0
0
0
0
0
0
0
0
0
0
0
0
0
0
0
0
0
0
0
0
0
0
0
0
0
0
0
0
0
0
0
0
0
0
0
0
0
0
0
0
0
0
0
0
0
0
0
0
0
0
0
0
0
0
0
0
0
0
0
0
0
0
0
0
0
0
0
0
0
0
0
0
0
0
0
0
0
0
0
0
0
0
0
0
0
0
0
0
0
0
0
)
;

boundaryField
{
    sides
    {
        type            zeroGradient;
    }
    empty
    {
        type            empty;
    }
}


// ************************************************************************* //
