/*--------------------------------*- C++ -*----------------------------------*\
| =========                 |                                                 |
| \\      /  F ield         | OpenFOAM: The Open Source CFD Toolbox           |
|  \\    /   O peration     | Version:  2312                                  |
|   \\  /    A nd           | Website:  www.openfoam.com                      |
|    \\/     M anipulation  |                                                 |
\*---------------------------------------------------------------------------*/
FoamFile
{
    version     2.0;
    format      ascii;
    arch        "LSB;label=32;scalar=64";
    class       volScalarField;
    location    "1.4";
    object      T;
}
// * * * * * * * * * * * * * * * * * * * * * * * * * * * * * * * * * * * * * //

dimensions      [0 0 0 1 0 0 0];

internalField   nonuniform List<scalar> 
1000
(
3.25225e-17
3.29828e-17
3.42592e-17
3.63818e-17
3.94001e-17
4.33849e-17
4.84292e-17
5.46504e-17
6.21932e-17
7.12323e-17
8.19767e-17
9.46737e-17
1.09615e-16
1.27142e-16
1.47653e-16
1.71616e-16
1.9957e-16
2.32145e-16
2.70071e-16
3.14195e-16
3.65497e-16
4.25111e-16
4.94351e-16
5.74735e-16
6.68018e-16
7.76227e-16
9.01703e-16
1.04715e-15
1.21568e-15
1.4109e-15
1.63694e-15
1.8986e-15
2.20137e-15
2.55161e-15
2.95661e-15
3.42478e-15
3.9658e-15
4.59079e-15
5.31253e-15
6.14575e-15
7.10732e-15
8.21665e-15
9.49602e-15
1.0971e-14
1.2671e-14
1.46295e-14
1.68853e-14
1.94825e-14
2.24718e-14
2.59113e-14
2.98674e-14
3.44163e-14
3.9645e-14
4.5653e-14
5.25543e-14
6.0479e-14
6.95757e-14
8.00145e-14
9.19892e-14
1.05721e-13
1.21463e-13
1.39503e-13
1.6017e-13
1.83838e-13
2.10934e-13
2.41944e-13
2.77421e-13
3.17996e-13
3.64386e-13
4.17405e-13
4.7798e-13
5.47167e-13
6.26161e-13
7.16324e-13
8.19199e-13
9.3654e-13
1.07034e-12
1.22284e-12
1.39662e-12
1.59456e-12
1.81995e-12
2.07652e-12
2.36848e-12
2.70059e-12
3.07825e-12
3.50757e-12
3.99545e-12
4.54967e-12
5.17906e-12
5.89358e-12
6.70444e-12
7.62435e-12
8.6676e-12
9.85034e-12
1.11908e-11
1.27094e-11
1.44293e-11
1.63765e-11
1.85804e-11
2.10738e-11
2.3894e-11
2.70825e-11
3.06864e-11
3.47582e-11
3.93574e-11
4.45503e-11
5.04116e-11
5.70251e-11
6.44849e-11
7.28962e-11
8.23774e-11
9.30608e-11
1.05095e-10
1.18645e-10
1.33899e-10
1.51063e-10
1.70371e-10
1.92082e-10
2.16489e-10
2.43915e-10
2.74724e-10
3.09322e-10
3.48162e-10
3.91747e-10
4.40643e-10
4.95476e-10
5.56947e-10
6.25835e-10
7.03011e-10
7.8944e-10
8.86199e-10
9.94486e-10
1.11563e-09
1.25112e-09
1.4026e-09
1.57189e-09
1.76102e-09
1.97225e-09
2.20809e-09
2.4713e-09
2.76496e-09
3.09249e-09
3.45766e-09
3.86466e-09
4.31812e-09
4.82318e-09
5.38552e-09
6.01141e-09
6.7078e-09
7.48237e-09
8.34358e-09
9.30082e-09
1.03644e-08
1.15458e-08
1.28575e-08
1.43134e-08
1.59289e-08
1.77208e-08
1.97077e-08
2.191e-08
2.43503e-08
2.70534e-08
3.00465e-08
3.33595e-08
3.70254e-08
4.10805e-08
4.55644e-08
5.05209e-08
5.59978e-08
6.20476e-08
6.87281e-08
7.61023e-08
8.42396e-08
9.32157e-08
1.03114e-07
1.14025e-07
1.26048e-07
1.39292e-07
1.53877e-07
1.69932e-07
1.87599e-07
2.07033e-07
2.28404e-07
2.51897e-07
2.77714e-07
3.06073e-07
3.37216e-07
3.71403e-07
4.0892e-07
4.50075e-07
4.95206e-07
5.4468e-07
5.98897e-07
6.58289e-07
7.2333e-07
7.9453e-07
8.72447e-07
9.57684e-07
1.0509e-06
1.1528e-06
1.26415e-06
1.3858e-06
1.51865e-06
1.66367e-06
1.82194e-06
1.99459e-06
2.18287e-06
2.38812e-06
2.61181e-06
2.85548e-06
3.12085e-06
3.40973e-06
3.72411e-06
4.06611e-06
4.43804e-06
4.84237e-06
5.28176e-06
5.7591e-06
6.27747e-06
6.84022e-06
7.45092e-06
8.11344e-06
8.83191e-06
9.61078e-06
1.04548e-05
1.13692e-05
1.23595e-05
1.34315e-05
1.45916e-05
1.58466e-05
1.72038e-05
1.8671e-05
2.02565e-05
2.19694e-05
2.38191e-05
2.5816e-05
2.79709e-05
3.02956e-05
3.28025e-05
3.55051e-05
3.84175e-05
4.15549e-05
4.49335e-05
4.85707e-05
5.24847e-05
5.66953e-05
6.12233e-05
6.60908e-05
7.13216e-05
7.69407e-05
8.29749e-05
8.94526e-05
9.64038e-05
0.000103861
0.000111857
0.000120429
0.000129615
0.000139455
0.000149992
0.000161272
0.000173343
0.000186255
0.000200062
0.000214822
0.000230594
0.000247442
0.000265433
0.000284638
0.00030513
0.00032699
0.0003503
0.000375147
0.000401624
0.000429827
0.000459859
0.000491826
0.000525841
0.000562023
0.000600496
0.000641391
0.000684845
0.000731002
0.000780012
0.000832034
0.000887232
0.000945781
0.00100786
0.00107366
0.00114339
0.00121723
0.00129543
0.00137819
0.00146576
0.00155838
0.00165631
0.00175981
0.00186917
0.00198468
0.00210664
0.00223535
0.00237116
0.00251439
0.0026654
0.00282456
0.00299225
0.00316886
0.0033548
0.00355049
0.00375637
0.00397289
0.00420053
0.00443977
0.00469111
0.00495506
0.00523217
0.00552299
0.00582808
0.00614803
0.00648344
0.00683495
0.00720317
0.00758879
0.00799247
0.0084149
0.0088568
0.00931891
0.00980197
0.0103068
0.0108341
0.0113847
0.0119594
0.0125592
0.0131848
0.0138371
0.0145171
0.0152256
0.0159635
0.0167319
0.0175317
0.0183639
0.0192295
0.0201294
0.0210648
0.0220366
0.023046
0.0240939
0.0251815
0.0263099
0.0274802
0.0286935
0.0299509
0.0312535
0.0326025
0.0339991
0.0354444
0.0369394
0.0384855
0.0400838
0.0417353
0.0434413
0.045203
0.0470214
0.0488977
0.0508331
0.0528287
0.0548856
0.0570048
0.0591876
0.0614349
0.0637479
0.0661276
0.0685749
0.0710909
0.0736766
0.0763328
0.0790606
0.0818608
0.0847342
0.0876817
0.090704
0.093802
0.0969762
0.100227
0.103556
0.106963
0.110448
0.114013
0.117657
0.121381
0.125185
0.12907
0.133035
0.137081
0.141207
0.145415
0.149703
0.154072
0.158521
0.163049
0.167658
0.172346
0.177112
0.181957
0.186879
0.191877
0.196951
0.202101
0.207324
0.212619
0.217987
0.223424
0.228931
0.234505
0.240145
0.24585
0.251617
0.257445
0.263332
0.269276
0.275275
0.281327
0.28743
0.29358
0.299777
0.306018
0.312299
0.318619
0.324974
0.331362
0.33778
0.344225
0.350694
0.357184
0.363692
0.370214
0.376748
0.38329
0.389836
0.396384
0.402929
0.409469
0.415999
0.422516
0.429016
0.435496
0.441952
0.44838
0.454777
0.461137
0.467459
0.473737
0.479968
0.486148
0.492274
0.498341
0.504345
0.510283
0.516151
0.521945
0.527661
0.533295
0.538844
0.544304
0.549671
0.554941
0.560112
0.565179
0.570139
0.574988
0.579724
0.584342
0.588839
0.593213
0.597461
0.601578
0.605563
0.609411
0.613122
0.616691
0.620117
0.623396
0.626527
0.629507
0.632333
0.635005
0.637519
0.639874
0.642069
0.644101
0.645969
0.647672
0.649208
0.650576
0.651776
0.652806
0.653665
0.654354
0.65487
0.655215
0.655387
0.655387
0.655215
0.65487
0.654354
0.653665
0.652806
0.651776
0.650576
0.649208
0.647672
0.645969
0.644101
0.642069
0.639874
0.637519
0.635005
0.632333
0.629507
0.626527
0.623396
0.620117
0.616691
0.613122
0.609411
0.605563
0.601578
0.597461
0.593213
0.588839
0.584342
0.579724
0.574988
0.570139
0.565179
0.560112
0.554941
0.549671
0.544304
0.538844
0.533295
0.527661
0.521945
0.516151
0.510283
0.504345
0.498341
0.492274
0.486148
0.479968
0.473737
0.467459
0.461137
0.454777
0.44838
0.441952
0.435496
0.429016
0.422516
0.415999
0.409469
0.402929
0.396384
0.389836
0.38329
0.376748
0.370214
0.363692
0.357184
0.350694
0.344225
0.33778
0.331362
0.324974
0.318619
0.312299
0.306018
0.299777
0.29358
0.28743
0.281327
0.275275
0.269276
0.263332
0.257445
0.251617
0.24585
0.240145
0.234505
0.228931
0.223424
0.217987
0.212619
0.207324
0.202101
0.196951
0.191877
0.186879
0.181957
0.177112
0.172346
0.167658
0.163049
0.158521
0.154072
0.149703
0.145415
0.141207
0.137081
0.133035
0.12907
0.125185
0.121381
0.117657
0.114013
0.110448
0.106963
0.103556
0.100227
0.0969762
0.093802
0.090704
0.0876817
0.0847342
0.0818608
0.0790606
0.0763328
0.0736766
0.0710909
0.0685749
0.0661276
0.0637479
0.0614349
0.0591876
0.0570048
0.0548856
0.0528287
0.0508331
0.0488977
0.0470214
0.045203
0.0434413
0.0417353
0.0400838
0.0384855
0.0369394
0.0354444
0.0339991
0.0326025
0.0312535
0.0299509
0.0286935
0.0274802
0.0263099
0.0251815
0.0240939
0.023046
0.0220366
0.0210648
0.0201294
0.0192295
0.0183639
0.0175317
0.0167319
0.0159635
0.0152256
0.0145171
0.0138371
0.0131848
0.0125592
0.0119594
0.0113847
0.0108341
0.0103068
0.00980197
0.00931891
0.0088568
0.0084149
0.00799247
0.00758879
0.00720317
0.00683495
0.00648344
0.00614803
0.00582808
0.00552299
0.00523217
0.00495506
0.00469111
0.00443977
0.00420053
0.00397289
0.00375637
0.00355049
0.0033548
0.00316886
0.00299225
0.00282456
0.0026654
0.00251439
0.00237116
0.00223535
0.00210664
0.00198468
0.00186917
0.00175981
0.00165631
0.00155838
0.00146576
0.00137819
0.00129543
0.00121723
0.00114339
0.00107366
0.00100786
0.000945781
0.000887232
0.000832034
0.000780012
0.000731002
0.000684845
0.000641391
0.000600496
0.000562023
0.000525841
0.000491826
0.000459859
0.000429827
0.000401624
0.000375147
0.0003503
0.00032699
0.00030513
0.000284638
0.000265433
0.000247442
0.000230594
0.000214822
0.000200062
0.000186255
0.000173343
0.000161272
0.000149992
0.000139455
0.000129615
0.000120429
0.000111857
0.000103861
9.64038e-05
8.94526e-05
8.29749e-05
7.69407e-05
7.13216e-05
6.60908e-05
6.12233e-05
5.66953e-05
5.24847e-05
4.85707e-05
4.49335e-05
4.15549e-05
3.84175e-05
3.55051e-05
3.28025e-05
3.02956e-05
2.79709e-05
2.5816e-05
2.38191e-05
2.19694e-05
2.02565e-05
1.8671e-05
1.72038e-05
1.58466e-05
1.45916e-05
1.34315e-05
1.23595e-05
1.13692e-05
1.04548e-05
9.61078e-06
8.83191e-06
8.11344e-06
7.45092e-06
6.84022e-06
6.27747e-06
5.7591e-06
5.28176e-06
4.84237e-06
4.43804e-06
4.06611e-06
3.72411e-06
3.40973e-06
3.12085e-06
2.85548e-06
2.61181e-06
2.38812e-06
2.18287e-06
1.99459e-06
1.82194e-06
1.66367e-06
1.51865e-06
1.3858e-06
1.26415e-06
1.1528e-06
1.0509e-06
9.57684e-07
8.72447e-07
7.9453e-07
7.2333e-07
6.58289e-07
5.98897e-07
5.4468e-07
4.95206e-07
4.50075e-07
4.0892e-07
3.71403e-07
3.37216e-07
3.06073e-07
2.77714e-07
2.51897e-07
2.28404e-07
2.07033e-07
1.87599e-07
1.69932e-07
1.53877e-07
1.39292e-07
1.26048e-07
1.14025e-07
1.03114e-07
9.32157e-08
8.42396e-08
7.61023e-08
6.87281e-08
6.20476e-08
5.59978e-08
5.05209e-08
4.55644e-08
4.10805e-08
3.70254e-08
3.33595e-08
3.00465e-08
2.70534e-08
2.43503e-08
2.191e-08
1.97077e-08
1.77208e-08
1.59289e-08
1.43134e-08
1.28575e-08
1.15458e-08
1.03644e-08
9.30082e-09
8.34358e-09
7.48237e-09
6.7078e-09
6.01141e-09
5.38552e-09
4.82318e-09
4.31812e-09
3.86466e-09
3.45766e-09
3.09249e-09
2.76496e-09
2.4713e-09
2.20809e-09
1.97225e-09
1.76102e-09
1.57189e-09
1.4026e-09
1.25112e-09
1.11563e-09
9.94486e-10
8.86199e-10
7.8944e-10
7.03011e-10
6.25835e-10
5.56947e-10
4.95476e-10
4.40643e-10
3.91747e-10
3.48162e-10
3.09322e-10
2.74724e-10
2.43915e-10
2.16489e-10
1.92082e-10
1.70371e-10
1.51063e-10
1.33899e-10
1.18645e-10
1.05095e-10
9.30608e-11
8.23774e-11
7.28962e-11
6.44849e-11
5.70251e-11
5.04116e-11
4.45503e-11
3.93574e-11
3.47582e-11
3.06864e-11
2.70825e-11
2.3894e-11
2.10738e-11
1.85804e-11
1.63765e-11
1.44293e-11
1.27094e-11
1.11908e-11
9.85034e-12
8.6676e-12
7.62435e-12
6.70444e-12
5.89358e-12
5.17906e-12
4.54967e-12
3.99545e-12
3.50757e-12
3.07825e-12
2.70059e-12
2.36848e-12
2.07652e-12
1.81995e-12
1.59456e-12
1.39662e-12
1.22284e-12
1.07034e-12
9.3654e-13
8.19199e-13
7.16324e-13
6.26161e-13
5.47167e-13
4.7798e-13
4.17405e-13
3.64386e-13
3.17996e-13
2.77421e-13
2.41944e-13
2.10934e-13
1.83838e-13
1.6017e-13
1.39503e-13
1.21463e-13
1.05721e-13
9.19892e-14
8.00145e-14
6.95757e-14
6.0479e-14
5.25543e-14
4.5653e-14
3.9645e-14
3.44163e-14
2.98674e-14
2.59113e-14
2.24718e-14
1.94825e-14
1.68853e-14
1.46295e-14
1.2671e-14
1.0971e-14
9.49602e-15
8.21665e-15
7.10732e-15
6.14575e-15
5.31253e-15
4.59079e-15
3.9658e-15
3.42478e-15
2.95661e-15
2.55161e-15
2.20137e-15
1.8986e-15
1.63694e-15
1.4109e-15
1.21568e-15
1.04715e-15
9.01703e-16
7.76227e-16
6.68018e-16
5.74735e-16
4.94351e-16
4.25111e-16
3.65497e-16
3.14195e-16
2.70071e-16
2.32145e-16
1.9957e-16
1.71616e-16
1.47653e-16
1.27142e-16
1.09615e-16
9.46737e-17
8.19767e-17
7.12323e-17
6.21932e-17
5.46504e-17
4.84292e-17
4.33849e-17
3.94001e-17
3.63818e-17
3.42592e-17
3.29828e-17
3.25225e-17
)
;

boundaryField
{
    sides
    {
        type            zeroGradient;
    }
    empty
    {
        type            empty;
    }
}


// ************************************************************************* //
