/*--------------------------------*- C++ -*----------------------------------*\
| =========                 |                                                 |
| \\      /  F ield         | OpenFOAM: The Open Source CFD Toolbox           |
|  \\    /   O peration     | Version:  2312                                  |
|   \\  /    A nd           | Website:  www.openfoam.com                      |
|    \\/     M anipulation  |                                                 |
\*---------------------------------------------------------------------------*/
FoamFile
{
    version     2.0;
    format      ascii;
    arch        "LSB;label=32;scalar=64";
    class       volScalarField;
    location    "0.5";
    object      T;
}
// * * * * * * * * * * * * * * * * * * * * * * * * * * * * * * * * * * * * * //

dimensions      [0 0 0 1 0 0 0];

internalField   nonuniform List<scalar> 
1000
(
0
0
0
0
0
0
0
0
0
0
0
0
0
0
0
0
0
0
0
0
0
0
0
0
0
0
0
0
0
0
0
0
0
0
0
0
0
0
0
0
0
0
0
0
0
0
0
0
0
0
0
0
0
0
0
0
0
0
0
0
0
0
0
0
0
0
0
0
0
0
0
0
0
0
0
0
0
0
0
0
0
0
0
0
0
0
0
0
0
0
0
0
0
0
0
0
0
0
0
0
0
0
0
0
0
0
0
0
0
0
0
0
0
0
0
0
0
0
0
0
0
0
0
0
0
0
0
0
0
0
0
0
0
0
0
0
0
0
0
0
0
0
0
0
0
0
0
0
0
0
0
0
0
0
0
0
0
0
0
0
0
0
0
0
0
0
0
0
0
0
0
0
0
0
0
0
0
0
0
0
0
0
0
0
0
0
0
0
0
0
0
0
0
0
0
0
0
0
0
0
0
0
0
0
0
0
0
0
0
0
0
0
0
0
0
0
0
0
0
0
0
0
0
0
0
0
0
0
0
0
0
0
0
0
0
0
0
0
0
0
0
0
0
0
0
0
0
0
0
0
0
0
0
0
0
0
0
0
0
0
0
0
0
0
0
0
0
0
0
0
0
0
0
0
0
0
0
0
0
0
0
0
0
0
0
0
0
0
0
0
0
0
0
0
0
0
0
0
0
0
0
0
0
0
0
0
0
0
0
0
0
0
0
0
0
0
0
0
0
0
0
0
0
0
0
0
0
0
0
0
0
0
0
0
0
0
0
0
0
0
0
0
0
0
0
0
0
0
0
0
0
0
0
0
0
0
0
0
0
0
0
0
0
0
0
0
0
0
0
0
0
0
0
0
0
0
0
0
0
0
0
0
0
0
0
0
0
0
0
0
0
0
0
0
0
0
0
0
0
0
0
0
0
0
0
0
0
0
0
0
0
0
0
0
0
0
0
0
0
0
0
0
0
0
0
0
0
0
0
0
0
0
0
0
0
0
0
0
0
0
0
0
0
0
0
0
0
0
0
0
5.27557e-15
1.73135e-13
2.84896e-12
3.13425e-11
2.59355e-10
1.72195e-09
9.55572e-09
4.55911e-08
1.9092e-07
7.1293e-07
2.40377e-06
7.39243e-06
2.0911e-05
5.47924e-05
0.000133798
0.000306077
0.000658956
0.00134056
0.00258638
0.00474779
0.00831706
0.0139414
0.0224173
0.0346589
0.0516348
0.0742776
0.103373
0.139443
0.182645
0.2327
0.288868
0.349977
0.414507
0.480707
0.546748
0.610868
0.671506
0.727407
0.777678
0.821808
0.85965
0.891366
0.917364
0.938217
0.954594
0.967193
0.976691
0.983713
0.988806
0.99243
0.994962
0.9967
0.997872
0.998649
0.999155
0.999479
0.999684
0.999811
0.999888
0.999935
0.999963
0.999979
0.999988
0.999994
0.999996
0.999998
0.999999
0.999999
1
1
1
1
1
1
1
1
1
1
1
1
1
1
1
1
1
1
1
1
1
1
1
1
1
1
1
1
1
1
1
1
1
1
1
1
1
1
1
1
1
0.999999
0.999998
0.999993
0.999979
0.999945
0.999866
0.999694
0.999341
0.998659
0.997414
0.995252
0.991683
0.986059
0.977583
0.965341
0.948365
0.925722
0.896627
0.860557
0.817355
0.7673
0.711132
0.650023
0.585493
0.519293
0.453252
0.389132
0.328494
0.272593
0.222322
0.178192
0.14035
0.108634
0.0826359
0.0617826
0.0454058
0.0328073
0.0233086
0.0162866
0.0111943
0.00757012
0.00503783
0.00329999
0.00212816
0.0013515
0.000845361
0.00052093
0.000316318
0.000189308
0.000111689
6.49734e-05
3.7277e-05
2.10967e-05
1.17799e-05
6.49105e-06
3.53033e-06
1.89551e-06
1.00492e-06
5.26146e-07
2.72104e-07
1.39024e-07
7.01862e-08
3.50178e-08
1.72694e-08
8.41945e-09
4.05864e-09
1.93479e-09
9.12239e-10
4.25473e-10
1.9633e-10
8.96422e-11
4.05053e-11
1.81153e-11
8.01989e-12
3.51512e-12
1.52551e-12
6.55611e-13
2.79055e-13
1.17651e-13
4.91381e-14
2.03331e-14
8.3369e-15
3.3874e-15
1.36407e-15
5.44458e-16
2.15423e-16
8.45015e-17
3.28644e-17
1.26741e-17
4.84711e-18
1.8385e-18
6.91667e-19
2.58122e-19
9.55624e-20
3.5101e-20
1.27926e-20
4.62643e-21
1.6604e-21
5.9142e-22
2.09089e-22
7.33753e-23
2.55616e-23
8.84054e-24
3.03566e-24
1.03501e-24
3.50413e-25
1.17813e-25
3.93385e-26
1.3046e-26
4.29739e-27
1.40614e-27
4.57061e-28
1.47595e-28
4.73532e-29
1.5095e-29
4.7813e-30
1.50494e-30
4.70734e-31
1.46333e-31
4.52107e-32
1.38835e-32
4.23778e-33
1.28583e-33
3.87846e-34
1.16302e-34
3.46727e-35
1.02775e-35
3.02905e-36
8.87697e-37
2.58694e-37
7.49704e-38
2.16072e-38
6.19341e-39
1.76566e-39
5.00665e-40
1.41212e-40
3.96185e-41
1.10572e-41
3.06999e-42
8.4798e-43
2.3303e-43
6.37138e-44
1.73328e-44
4.69174e-45
1.26371e-45
3.38708e-46
9.03412e-47
2.39797e-47
6.33458e-48
1.66541e-48
4.35785e-49
1.13498e-49
2.94224e-50
7.59213e-51
1.9501e-51
4.98626e-52
1.2692e-52
3.21618e-53
8.11366e-54
2.03786e-54
5.096e-55
1.2688e-55
3.14543e-56
7.76433e-57
1.90844e-57
4.67107e-58
1.13849e-58
2.76335e-59
6.67947e-60
1.60792e-60
3.85489e-61
9.20452e-62
2.18898e-62
5.18498e-63
1.22329e-63
2.87473e-64
6.72922e-65
1.56907e-65
3.64456e-66
8.43295e-67
1.94384e-67
4.4637e-68
1.02117e-68
2.32743e-69
5.28499e-70
1.19567e-70
2.69516e-71
6.05313e-72
1.35458e-72
3.02042e-73
6.71091e-74
1.48578e-74
3.27791e-75
7.2064e-76
1.5788e-76
3.44696e-77
7.49984e-78
1.62624e-78
3.51433e-79
7.56897e-80
1.6247e-80
3.47588e-81
7.41169e-82
1.57522e-82
3.3369e-83
7.04584e-84
1.48293e-84
3.11108e-85
6.50601e-86
1.35625e-86
2.81835e-87
5.83831e-88
1.20566e-88
2.48209e-89
5.09412e-90
1.0423e-90
2.12613e-91
4.32387e-92
8.76692e-93
1.77223e-93
3.57192e-94
7.1779e-95
1.43818e-95
2.87316e-96
5.72323e-97
1.13675e-97
2.25133e-98
4.44601e-99
8.7552e-100
1.71922e-100
3.36647e-101
6.57357e-102
1.28003e-102
2.48562e-103
4.81342e-104
9.29573e-105
1.79032e-105
3.43874e-106
6.58715e-107
1.25844e-107
2.39778e-108
4.55652e-109
8.63599e-110
1.63249e-110
3.07791e-111
5.78806e-112
1.08565e-112
2.03108e-113
3.79014e-114
7.05471e-115
1.3098e-115
2.42569e-116
4.48105e-117
8.25736e-118
1.51784e-118
2.78317e-119
5.09083e-120
9.28915e-121
1.69086e-121
3.07038e-122
5.56199e-123
1.00515e-123
1.81215e-124
3.25934e-125
5.84846e-126
1.04697e-126
1.86988e-127
3.33183e-128
5.9231e-129
1.05055e-129
1.85904e-130
3.28224e-131
5.78187e-132
1.01622e-132
1.78209e-133
3.11818e-134
5.44386e-135
9.48312e-136
1.64831e-136
2.85874e-137
4.94722e-138
8.54289e-139
1.47201e-139
2.53093e-140
4.34229e-141
7.43418e-142
1.27006e-142
2.16521e-143
3.6835e-144
6.25335e-145
1.0594e-145
1.79105e-146
3.02174e-147
5.08762e-148
8.54837e-149
1.4334e-149
2.39868e-150
4.00589e-151
6.67657e-152
1.11055e-152
1.84357e-153
3.05436e-154
5.05037e-155
8.33436e-156
1.37269e-156
2.25645e-157
3.70201e-158
6.06192e-159
9.90714e-160
1.61605e-160
2.63108e-161
4.27553e-162
6.93464e-163
1.12264e-163
1.81404e-164
2.92577e-165
4.71008e-166
7.56855e-167
1.21394e-167
1.94351e-168
3.10587e-169
4.95438e-170
7.88877e-171
1.25385e-171
1.98932e-172
3.15054e-173
4.98074e-174
7.86017e-175
1.23824e-175
1.9472e-176
3.05674e-177
4.79015e-178
7.49351e-179
1.17023e-179
1.82435e-180
2.83922e-181
4.41113e-182
6.84165e-183
1.05934e-183
1.63749e-184
2.52692e-185
3.89293e-186
5.98739e-187
9.19344e-188
1.40929e-188
2.15678e-189
3.29533e-190
5.0267e-191
7.65526e-192
1.16395e-192
1.76687e-193
2.67779e-194
4.05184e-195
6.12119e-196
9.23269e-197
1.39038e-197
2.09051e-198
3.13827e-199
4.70379e-200
7.03927e-201
1.0518e-201
1.56916e-202
2.33739e-203
3.47638e-204
5.1625e-205
7.65475e-206
1.13329e-206
1.67532e-207
2.47285e-208
3.64457e-209
5.36346e-210
7.88129e-211
1.15639e-211
1.69422e-212
2.47854e-213
3.62063e-214
5.28126e-215
7.69234e-216
1.11879e-216
1.62484e-217
2.3564e-218
3.41242e-219
4.93463e-220
7.12571e-221
1.02751e-221
1.47954e-222
2.12745e-223
3.05478e-224
4.3802e-225
6.27194e-226
8.96822e-227
1.28059e-227
1.82606e-228
2.6003e-229
3.69775e-230
5.25119e-231
7.44713e-232
1.05471e-232
1.49172e-233
2.10698e-234
2.97201e-235
4.18659e-236
5.88969e-237
8.27464e-238
1.161e-238
1.62683e-239
2.27658e-240
3.18168e-241
4.44082e-242
6.19022e-243
8.61762e-244
1.19814e-244
1.66368e-245
2.30716e-246
3.19544e-247
4.42008e-248
6.10633e-249
8.42522e-250
1.16101e-250
1.59788e-251
2.1964e-252
3.01534e-253
4.13449e-254
5.66201e-255
7.74432e-256
1.05794e-256
1.44347e-257
1.9671e-258
2.6774e-259
3.63978e-260
4.94209e-261
6.7023e-262
9.07852e-263
1.22825e-263
1.65974e-264
2.24015e-265
3.01995e-266
4.06639e-267
5.46899e-268
7.34676e-269
9.85772e-270
)
;

boundaryField
{
    sides
    {
        type            zeroGradient;
    }
    empty
    {
        type            empty;
    }
}


// ************************************************************************* //
