/*--------------------------------*- C++ -*----------------------------------*\
| =========                 |                                                 |
| \\      /  F ield         | OpenFOAM: The Open Source CFD Toolbox           |
|  \\    /   O peration     | Version:  2312                                  |
|   \\  /    A nd           | Website:  www.openfoam.com                      |
|    \\/     M anipulation  |                                                 |
\*---------------------------------------------------------------------------*/
FoamFile
{
    version     2.0;
    format      ascii;
    arch        "LSB;label=32;scalar=64";
    class       volScalarField;
    location    "1.5";
    object      T;
}
// * * * * * * * * * * * * * * * * * * * * * * * * * * * * * * * * * * * * * //

dimensions      [0 0 0 1 0 0 0];

internalField   nonuniform List<scalar> 
1000
(
0
0
0
0
0
0
0
0
0
0
0
0
0
0
0
0
0
0
0
0
0
0
0
0
0
0
0
0
0
0
0
0
0
0
0
0
0
0
0
0
0
0
0
0
0
0
0
0
0
0
0
0
0
0
0
0
0
0
0
0
0
0
0
0
0
0
0
0
0
0
0
0
0
0
0
0
0
0
0
0
0
0
0
0
0
0
0
0
0
0
0
0
0
0
0
0
0
0
0
0
0
0
0
0
0
0
0
0
0
0
0
0
0
0
0
0
0
0
0
0
0
0
0
0
0
0
0
0
0
0
0
0
0
0
0
0
0
0
0
0
0
0
0
0
0
0
0
0
0
0
0
0
0
0
0
0
0
0
0
0
0
0
0
0
0
0
0
0
0
0
0
0
0
0
0
0
0
0
0
0
0
0
0
0
0
0
0
0
0
0
0
0
0
0
0
0
0
0
0
0
0
0
0
0
0
0
0
0
0
0
0
0
0
0
0
0
0
0
0
0
0
0
0
0
0
0
0
0
0
0
0
0
0
0
0
0
0
0
0
0
0
0
0
0
0
0
0
0
0
0
0
0
0
0
0
0
0
0
0
0
0
0
0
0
0
0
0
0
0
0
0
0
0
0
0
0
0
0
0
0
0
0
0
0
0
0
0
0
0
0
0
0
0
0
0
0
0
0
0
0
0
0
0
0
0
0
0
0
0
0
0
0
0
0
0
0
0
0
0
0
0
0
0
0
0
0
0
0
0
0
0
0
0
0
0
0
0
0
0
0
0
0
0
0
0
0
0
0
0
0
0
0
0
0
0
0
0
0
0
0
0
0
0
0
0
0
0
0
0
0
0
0
0
0
0
0
0
0
0
0
0
0
0
0
0
0
0
0
0
0
0
0
0
0
0
0
0
0
0
0
0
0
0
0
0
0
0
0
0
0
0
0
0
0
0
0
0
0
0
0
0
0
0
0
0
0
0
0
0
0
0
0
0
0
0
0
0
0
0
0
0
0
0
0
0
0
0
0
0
0
1.46828e-43
1.41622e-41
6.83526e-40
2.20099e-38
5.31951e-37
1.02932e-35
1.66103e-34
2.29928e-33
2.78707e-32
3.00529e-31
2.9188e-30
2.57908e-29
2.09061e-28
1.56552e-27
1.08942e-26
7.08129e-26
4.31857e-25
2.48073e-24
1.34691e-23
6.93364e-23
3.39353e-22
1.58307e-21
7.05489e-21
3.00971e-20
1.23148e-19
4.84116e-19
1.83144e-18
6.67725e-18
2.34944e-17
7.98821e-17
2.62766e-16
8.37161e-16
2.58596e-15
7.7524e-15
2.25762e-14
6.39212e-14
1.76106e-13
4.72472e-13
1.2353e-12
3.14965e-12
7.83676e-12
1.90401e-11
4.51982e-11
1.04892e-10
2.38105e-10
5.28966e-10
1.15064e-09
2.45194e-09
5.12085e-09
1.04864e-08
2.10643e-08
4.15225e-08
8.03538e-08
1.52714e-07
2.85144e-07
5.23255e-07
9.44008e-07
1.67492e-06
2.92355e-06
5.02179e-06
8.49118e-06
1.41374e-05
2.31837e-05
3.74567e-05
5.96387e-05
9.36036e-05
0.000144855
0.000221085
0.000332873
0.00049453
0.000725112
0.00104958
0.00150011
0.00211749
0.00295263
0.00406797
0.00553886
0.00745467
0.00991953
0.0130527
0.0169879
0.0218728
0.0278663
0.0351359
0.0438539
0.0541924
0.0663178
0.0803843
0.0965273
0.114857
0.135451
0.158349
0.183548
0.210998
0.240602
0.272211
0.305631
0.340624
0.376912
0.414186
0.452114
0.490349
0.52854
0.56634
0.603417
0.639459
0.674188
0.707359
0.738769
0.768255
0.795702
0.821035
0.844224
0.865275
0.88423
0.901158
0.916157
0.929339
0.940835
0.950781
0.959321
0.966597
0.972749
0.977911
0.982211
0.985766
0.988684
0.991061
0.992983
0.994528
0.995759
0.996734
0.997501
0.998099
0.998564
0.998921
0.999195
0.999403
0.999559
0.999677
0.999765
0.99983
0.999877
0.999912
0.999938
0.999956
0.999969
0.999978
0.999985
0.99999
0.999993
0.999995
0.999997
0.999998
0.999998
0.999998
0.999998
0.999998
0.999997
0.999995
0.999991
0.999986
0.999977
0.999963
0.99994
0.999906
0.999855
0.999779
0.999667
0.999505
0.999275
0.99895
0.9985
0.997883
0.997047
0.995932
0.994461
0.992545
0.99008
0.986947
0.983012
0.978127
0.972134
0.964864
0.956146
0.945808
0.933682
0.919616
0.903473
0.885143
0.864549
0.841651
0.816452
0.789002
0.759398
0.727789
0.694369
0.659376
0.623088
0.585814
0.547886
0.509651
0.47146
0.43366
0.396583
0.360541
0.325812
0.292641
0.261231
0.231745
0.204298
0.178965
0.155776
0.134725
0.11577
0.0988417
0.0838434
0.0706609
0.0591652
0.0492187
0.040679
0.0334033
0.0272515
0.022089
0.0177891
0.0142341
0.0113165
0.00893938
0.00701658
0.00547238
0.00424102
0.00326601
0.00249937
0.00190073
0.00143648
0.00107889
0.000805327
0.000597439
0.00044051
0.000322828
0.000235155
0.000170262
0.00012254
8.76693e-05
6.23504e-05
4.40827e-05
3.09848e-05
2.16519e-05
1.50426e-05
1.03906e-05
7.13626e-06
4.87328e-06
3.30909e-06
2.23433e-06
1.5002e-06
1.00169e-06
6.65131e-07
4.39226e-07
2.88463e-07
1.8842e-07
1.22409e-07
7.90967e-08
5.0837e-08
3.25006e-08
2.06683e-08
1.30747e-08
8.22791e-09
5.15097e-09
3.20806e-09
1.98776e-09
1.22537e-09
7.51559e-10
4.58633e-10
2.78475e-10
1.68243e-10
1.01142e-10
6.05039e-11
3.60166e-11
2.13354e-11
1.25774e-11
7.37881e-12
4.30821e-12
2.50342e-12
1.4478e-12
8.33367e-13
4.77446e-13
2.72261e-13
1.54536e-13
8.73111e-14
4.91039e-14
2.74903e-14
1.53204e-14
8.49962e-15
4.69438e-15
2.58117e-15
1.41295e-15
7.70042e-16
4.17825e-16
2.25723e-16
1.21414e-16
6.50249e-17
3.46756e-17
1.84123e-17
9.73515e-18
5.12552e-18
2.68721e-18
1.40296e-18
7.29421e-19
3.77667e-19
1.94736e-19
9.99999e-20
5.11421e-20
2.60491e-20
1.32144e-20
6.67663e-21
3.35991e-21
1.6841e-21
8.40785e-22
4.18109e-22
2.07105e-22
1.02187e-22
5.02238e-23
2.45893e-23
1.19925e-23
5.82657e-24
2.82007e-24
1.35975e-24
6.5316e-25
3.12571e-25
1.49023e-25
7.07854e-26
3.34985e-26
1.57945e-26
7.41984e-27
3.47294e-27
1.61965e-27
7.52621e-28
3.48472e-28
1.60769e-28
7.39076e-29
3.38558e-29
1.54541e-29
7.02953e-30
3.18631e-30
1.43925e-30
6.47855e-31
2.90616e-31
1.29918e-31
5.78803e-32
2.56988e-32
1.13716e-32
5.01492e-33
2.20418e-33
9.65552e-34
4.21558e-34
1.83441e-34
7.95616e-35
3.43939e-35
1.48196e-35
6.36467e-36
2.72462e-36
1.1626e-36
4.94493e-37
2.09651e-37
8.86028e-38
3.73266e-38
1.56753e-38
6.56212e-39
2.73849e-39
1.13925e-39
4.72475e-40
1.9534e-40
8.05128e-41
3.30829e-41
1.35523e-41
5.5348e-42
2.25357e-42
9.14805e-43
3.70236e-43
1.49392e-43
6.01007e-44
2.41069e-44
9.64086e-45
3.84424e-45
1.52837e-45
6.05867e-46
2.39475e-46
9.43808e-47
3.70895e-47
1.45334e-47
5.67858e-48
2.21244e-48
8.59541e-49
3.3299e-49
1.28638e-49
4.9555e-50
1.90366e-50
7.29253e-51
2.78587e-51
1.0613e-51
4.03201e-52
1.5276e-52
5.77179e-53
2.17484e-53
8.17264e-54
3.06283e-54
1.14476e-54
4.26714e-55
1.58635e-55
5.8817e-56
2.17497e-56
8.0215e-57
2.95061e-57
1.0825e-57
3.96104e-58
1.44563e-58
5.26231e-59
1.91061e-59
6.9191e-60
2.49925e-60
9.00449e-61
3.23594e-61
1.15995e-61
4.14741e-62
1.47918e-62
5.26225e-63
1.86739e-63
6.61019e-64
2.33407e-64
8.22122e-65
2.8886e-65
1.01244e-65
3.53986e-66
1.23465e-66
4.29577e-67
1.49103e-67
5.16275e-68
1.78332e-68
6.14519e-69
2.11253e-69
7.24491e-70
2.47875e-70
8.46064e-71
2.88104e-71
9.78753e-72
3.31726e-72
1.12169e-72
3.78401e-73
1.27358e-73
4.27656e-74
1.43273e-74
4.78888e-75
1.59702e-75
5.3137e-76
1.76399e-76
5.84265e-77
1.93083e-77
6.36647e-78
2.0945e-78
6.87527e-79
2.25181e-79
7.35883e-80
2.39952e-80
7.80694e-81
2.53444e-81
8.20978e-82
2.65357e-82
8.55825e-83
2.7542e-83
8.84434e-84
2.83399e-84
9.06146e-85
2.89112e-85
9.20463e-86
2.9243e-86
9.27074e-87
2.93283e-87
9.25859e-88
2.91668e-88
9.16898e-89
2.87638e-89
9.00465e-90
2.8131e-90
8.77009e-91
2.72852e-91
8.4714e-92
2.62478e-92
8.11602e-93
2.50442e-93
7.71239e-94
2.37023e-94
7.26968e-95
2.22518e-95
6.79741e-96
2.0723e-96
6.30513e-97
1.91457e-97
5.80215e-98
1.75488e-98
5.29723e-99
1.59587e-99
4.79837e-100
1.43993e-100
4.31266e-101
1.28915e-101
3.84612e-102
1.14526e-102
3.40366e-103
1.00962e-103
2.98907e-104
8.83257e-105
2.60502e-105
7.66854e-106
2.25316e-106
6.60775e-107
1.93418e-107
5.65103e-108
1.64796e-108
4.79684e-109
1.39366e-109
4.04161e-110
1.1699e-110
3.38021e-111
9.74856e-112
2.80635e-112
8.06398e-113
2.31295e-113
6.62209e-114
1.8925e-114
5.39876e-115
1.53734e-115
4.36983e-116
1.23989e-116
3.51176e-117
9.92873e-118
2.80215e-118
7.89442e-119
2.22015e-119
6.23275e-120
1.74668e-120
4.8864e-121
1.3646e-121
3.80421e-122
1.05869e-122
2.94119e-123
8.15693e-124
2.2583e-124
6.24154e-125
1.7221e-125
4.7433e-126
)
;

boundaryField
{
    sides
    {
        type            zeroGradient;
    }
    empty
    {
        type            empty;
    }
}


// ************************************************************************* //
