/*--------------------------------*- C++ -*----------------------------------*\
| =========                 |                                                 |
| \\      /  F ield         | OpenFOAM: The Open Source CFD Toolbox           |
|  \\    /   O peration     | Version:  2312                                  |
|   \\  /    A nd           | Website:  www.openfoam.com                      |
|    \\/     M anipulation  |                                                 |
\*---------------------------------------------------------------------------*/
FoamFile
{
    version     2.0;
    format      ascii;
    arch        "LSB;label=32;scalar=64";
    class       volScalarField;
    location    "0.7";
    object      T;
}
// * * * * * * * * * * * * * * * * * * * * * * * * * * * * * * * * * * * * * //

dimensions      [0 0 0 1 0 0 0];

internalField   nonuniform List<scalar> 
1000
(
1.25504e-226
-9.17898e-226
5.92817e-225
-3.83426e-224
2.47589e-223
-1.59618e-222
1.02738e-221
-6.60205e-221
4.23567e-220
-2.71306e-219
1.73496e-218
-1.10767e-217
7.06029e-217
-4.49284e-216
2.85434e-215
-1.8104e-214
1.14637e-213
-7.24701e-213
4.57374e-212
-2.88178e-211
1.8127e-210
-1.13833e-209
7.1364e-209
-4.46645e-208
2.79071e-207
-1.74074e-206
1.08397e-205
-6.73856e-205
4.18194e-204
-2.59088e-203
1.60242e-202
-9.89378e-202
6.09821e-201
-3.75228e-200
2.30483e-199
-1.41329e-198
8.65113e-198
-5.28638e-197
3.22469e-196
-1.96363e-195
1.19363e-194
-7.24299e-194
4.38735e-193
-2.6529e-192
1.60129e-191
-9.64832e-191
5.8031e-190
-3.48414e-189
2.08811e-188
-1.24921e-187
7.45996e-187
-4.44689e-186
2.64601e-185
-1.5716e-184
9.31757e-184
-5.5141e-183
3.25727e-182
-1.92061e-181
1.13039e-180
-6.64077e-180
3.89411e-179
-2.27927e-178
1.33161e-177
-7.76522e-177
4.51981e-176
-2.62588e-175
1.52271e-174
-8.81337e-174
5.09155e-173
-2.93587e-172
1.68967e-171
-9.70606e-171
5.56489e-170
-3.1845e-169
1.81884e-168
-1.03684e-167
5.89922e-167
-3.34995e-166
1.89864e-165
-1.07399e-164
6.06339e-164
-3.4165e-163
1.92131e-162
-1.07835e-161
6.04042e-161
-3.37689e-160
1.88411e-159
-1.04914e-158
5.83033e-158
-3.2336e-157
1.78982e-156
-9.88689e-156
5.45047e-155
-2.99868e-154
1.64644e-153
-9.02152e-153
4.93317e-152
-2.69206e-151
1.46606e-150
-7.96755e-150
4.32117e-149
-2.33872e-148
1.26315e-147
-6.80808e-147
3.66174e-146
-1.96535e-145
1.05264e-144
-5.62604e-144
3.0006e-143
-1.59695e-142
8.48103e-142
-4.49448e-141
2.37673e-140
-1.25414e-139
6.60355e-139
-3.46952e-138
1.81894e-137
-9.51529e-137
4.96681e-136
-2.58691e-135
1.34441e-134
-6.97145e-134
3.60707e-133
-1.86218e-132
9.59227e-132
-4.93005e-131
2.52818e-130
-1.29356e-129
6.60371e-129
-3.3636e-128
1.70936e-127
-8.66711e-127
4.38451e-126
-2.21295e-125
1.11435e-124
-5.59846e-124
2.80613e-123
-1.40326e-122
7.00089e-122
-3.48459e-121
1.73033e-120
-8.57198e-120
4.23648e-119
-2.08881e-118
1.02744e-117
-5.04165e-117
2.46801e-116
-1.20525e-115
5.87157e-115
-2.8535e-114
1.38339e-113
-6.69032e-113
3.22764e-112
-1.55329e-111
7.4567e-111
-3.57078e-110
1.70568e-109
-8.12732e-109
3.86284e-108
-1.83135e-107
8.66042e-107
-4.08511e-106
1.92204e-105
-9.02006e-105
4.22223e-104
-1.97131e-103
9.18004e-103
-4.26389e-102
1.97531e-101
-9.12696e-101
4.20607e-100
-1.93322e-99
8.86204e-99
-4.05165e-98
1.84744e-97
-8.40125e-97
3.8102e-96
-1.72337e-95
7.77373e-95
-3.49701e-94
1.56883e-93
-7.01876e-93
3.13146e-92
-1.39325e-91
6.18164e-91
-2.73504e-90
1.20671e-89
-5.30911e-89
2.32921e-88
-1.01897e-87
4.44501e-87
-1.93348e-86
8.386e-86
-3.62672e-85
1.56391e-84
-6.72418e-84
2.88267e-83
-1.23217e-82
5.25125e-82
-2.23133e-81
9.45294e-81
-3.99271e-80
1.68136e-79
-7.05893e-79
2.95458e-78
-1.2329e-77
5.12889e-77
-2.12707e-76
8.79413e-76
-3.62454e-75
1.4892e-74
-6.09942e-74
2.4903e-73
-1.01353e-72
4.11183e-72
-1.66281e-71
6.7027e-71
-2.69309e-70
1.07855e-69
-4.30534e-69
1.71296e-68
-6.79287e-68
2.68483e-67
-1.05762e-66
4.15228e-66
-1.62472e-65
6.33575e-65
-2.46228e-64
9.53648e-64
-3.68081e-63
1.41577e-62
-5.42666e-62
2.07277e-61
-7.88933e-61
2.99221e-60
-1.13083e-59
4.25845e-59
-1.59787e-58
5.97391e-58
-2.22533e-57
8.25928e-57
-3.05415e-56
1.1252e-55
-4.13003e-55
1.51025e-54
-5.50183e-54
1.99673e-53
-7.21899e-53
2.59996e-52
-9.32784e-52
3.33356e-51
-1.1867e-50
4.20788e-50
-1.48617e-49
5.22813e-49
-1.83182e-48
6.3925e-48
-2.22175e-47
7.69039e-47
-2.65104e-46
9.10094e-46
-3.11135e-45
1.05923e-44
-3.59089e-44
1.21218e-43
-4.07452e-43
1.36369e-42
-4.54434e-42
1.50775e-41
-4.98059e-41
1.63798e-40
-5.36292e-40
1.74801e-39
-5.6718e-39
1.83198e-38
-5.89015e-38
1.88506e-37
-6.00482e-37
1.90387e-36
-6.00789e-36
1.88685e-35
-5.89749e-35
1.83441e-34
-5.67815e-34
1.74897e-33
-5.36052e-33
1.63479e-32
-4.96056e-32
1.49759e-31
-4.49816e-31
1.34411e-30
-3.99551e-30
1.18149e-29
-3.47528e-29
1.01678e-28
-2.95889e-28
8.56381e-28
-2.46504e-27
7.05629e-27
-2.00865e-26
5.68569e-26
-1.60026e-25
4.47822e-25
-1.24595e-24
3.44632e-24
-9.47635e-24
2.59021e-23
-7.03735e-23
1.90037e-22
-5.10029e-22
1.36035e-21
-3.60563e-21
9.49625e-21
-2.48506e-20
6.46106e-20
-1.66887e-19
4.28213e-19
-1.0914e-18
2.7629e-18
-6.94645e-18
1.73439e-17
-4.30008e-17
1.05857e-16
-2.58722e-16
6.27742e-16
-1.5119e-15
3.61424e-15
-8.57474e-15
2.01879e-14
-4.71608e-14
1.09307e-13
-2.51326e-13
5.73199e-13
-1.29658e-12
2.90848e-12
-6.4692e-12
1.42658e-11
-3.11851e-11
6.7568e-11
-1.45083e-10
3.08677e-10
-6.5064e-10
1.35849e-09
-2.80914e-09
5.752e-09
-1.16604e-08
2.33977e-08
-4.64636e-08
9.12936e-08
-1.77444e-07
3.41094e-07
-6.48302e-07
1.21803e-06
-2.26152e-06
4.14842e-06
-7.51577e-06
1.34442e-05
-2.37367e-05
4.13498e-05
-7.10439e-05
0.000120337
-0.000200865
0.000330237
-0.000534495
0.000851158
-0.00133278
0.00205065
-0.00309804
0.00459178
-0.00667061
0.00948818
-0.013198
0.0179281
-0.0237439
0.0305998
-0.0382835
0.0463625
-0.0541464
0.0606861
-0.0648308
0.065362
-0.0612099
0.0517384
-0.0370516
0.018245
0.00249997
-0.0220796
0.03695
-0.0439091
0.0410393
-0.0285547
0.00922124
0.0119482
-0.0288514
0.036131
-0.0311623
0.0154278
0.00546841
-0.0234994
0.0312764
-0.0253573
0.00825458
0.0121336
-0.0258945
0.0260062
-0.0123467
-0.00764582
0.0226184
-0.0237373
0.0103033
0.009215
-0.0220917
0.0196629
-0.00362995
-0.0145129
0.0213856
-0.011794
-0.00673725
0.0193118
-0.0155727
-0.00127116
0.0165404
-0.0166184
0.00147218
0.0146589
-0.0162751
0.00181718
0.0141192
-0.0151015
0.000114601
0.0146577
-0.012923
-0.00335821
0.0154345
-0.00909369
-0.00806614
0.0150103
-0.0030184
-0.0126398
0.0115593
0.00489655
-0.0144829
0.00389661
0.0120712
-0.0105066
-0.00645293
0.0136369
-9.08421e-06
-0.0135622
0.00565189
0.011335
-0.00972841
-0.00811639
0.0122122
0.00479844
-0.0134463
-0.0019635
0.0139649
-0.00021601
-0.0140382
0.00135067
0.0144778
-0.00222541
-0.0140825
0.000531268
0.0164687
-0.00186399
-0.0125387
-0.00755361
0.0223285
-0.00247595
-0.00121786
-0.0300173
0.0345855
-0.0133532
0.0343961
-0.0667834
0.0474967
-0.0423232
0.0835047
-0.0731187
0.0349311
-0.0631849
0.0573707
0.0125166
0.00258816
-0.00882282
-0.0753237
0.0384166
-0.000558238
0.0861242
0.0156903
-0.0520654
-0.0645308
-0.12736
0.017956
0.116303
0.308892
0.524052
0.632501
0.81584
0.870769
0.923141
0.993847
0.959355
1.00621
1.00531
0.976591
1.02351
0.989645
0.99078
1.02209
0.980339
1.00363
1.01451
0.978614
1.01179
1.00674
0.980688
1.01557
1.00127
0.98346
1.01662
0.998528
0.985341
1.01628
0.998183
0.985881
1.0151
0.999885
0.985342
1.01292
1.00336
0.984565
1.00909
1.00807
0.98499
1.00302
1.01264
0.988441
0.995103
1.01448
0.996103
0.987929
1.01051
1.00645
0.986363
1.00001
1.01356
0.994348
0.988665
1.00973
1.00812
0.98779
0.995197
1.01345
1.00195
0.986059
1.00017
1.01411
0.998529
0.985723
1.0019
1.01462
0.998618
0.984864
0.999813
1.01564
1.00296
0.984342
0.992988
1.01442
1.01209
0.989158
0.982753
1.00389
1.02042
1.00665
0.981637
0.981326
1.00776
1.02628
1.01145
0.979681
0.969238
0.994912
1.0309
1.03837
1.00549
0.959519
0.942431
0.975088
1.04012
1.09338
1.09123
1.01321
0.868269
0.68564
0.499447
0.336222
0.209518
0.120977
0.0647257
0.0320471
0.0146386
0.00613328
0.00233289
0.000790374
0.000229295
5.13225e-05
5.15695e-06
-2.68024e-06
-2.14491e-06
-9.47043e-07
-3.08856e-07
-7.35935e-08
-8.99384e-09
2.37414e-09
2.07128e-09
8.27093e-10
2.2284e-10
3.52944e-11
-2.42138e-12
-4.12331e-12
-1.69748e-12
-4.32627e-13
-5.69846e-14
8.9624e-15
8.24793e-15
2.82104e-15
5.65652e-16
2.67487e-17
-2.97694e-17
-1.37852e-17
-3.36254e-18
-3.63761e-19
8.6941e-20
5.69819e-20
1.55855e-20
2.07548e-21
-2.33003e-22
-2.1329e-22
-6.12922e-23
-8.52308e-24
7.19684e-25
7.49557e-25
2.11484e-25
2.75848e-26
-2.8859e-27
-2.48832e-27
-6.44619e-28
-7.01955e-29
1.25652e-29
7.672e-30
1.71476e-30
1.2667e-31
-4.96796e-32
-2.13556e-32
-3.8575e-33
-7.62795e-35
1.67014e-34
5.19465e-35
6.85144e-36
-5.22736e-37
-4.6841e-37
-1.06088e-37
-7.7392e-39
2.70712e-39
1.08156e-39
1.6994e-40
-2.41465e-42
-8.05e-42
-2.00265e-42
-1.75605e-43
3.95758e-44
1.74636e-44
2.77889e-45
-2.00457e-47
-1.18158e-46
-2.83992e-47
-2.24347e-48
5.78362e-49
2.27674e-49
3.2084e-50
-1.13785e-51
-1.49327e-51
-3.06876e-52
-1.53926e-53
7.85092e-54
2.36701e-54
2.52037e-55
-2.87473e-56
-1.55003e-56
-2.43108e-57
9.09298e-60
8.70993e-59
1.86997e-59
1.05619e-60
-4.11072e-61
-1.23734e-61
-1.24903e-62
1.48635e-63
7.24861e-64
1.02354e-64
-2.39004e-66
-3.79732e-66
-7.0014e-67
-2.15775e-68
1.77329e-68
4.23609e-69
2.94262e-70
-7.22897e-71
-2.32616e-71
-2.36247e-72
2.4134e-73
1.17483e-73
1.54498e-74
-5.08786e-76
-5.49462e-76
-8.91986e-77
-9.19417e-79
2.38564e-78
4.70142e-79
1.9559e-80
-9.59988e-81
-2.30252e-81
-1.53359e-82
3.55502e-83
1.05911e-83
9.32912e-85
-1.19126e-85
-4.60835e-86
-4.95914e-87
3.47038e-88
1.90658e-88
2.40584e-89
-7.80292e-91
-7.52928e-91
-1.08814e-91
6.01897e-94
2.84699e-93
4.6456e-94
6.97476e-96
-1.03339e-95
-1.88725e-96
-5.92821e-98
3.60868e-98
7.33687e-99
3.29497e-100
-1.21485e-100
-2.74109e-101
-1.54202e-102
3.95029e-103
9.87433e-104
6.50888e-105
-1.24316e-105
-3.43896e-106
-2.55148e-107
3.79443e-108
1.16051e-108
9.4323e-110
-1.12597e-110
-3.80177e-111
-3.31869e-112
3.25745e-113
1.21097e-113
1.11797e-114
-9.21756e-116
-3.75565e-116
-3.62074e-117
2.56081e-118
1.13538e-118
1.1307e-119
-7.01422e-121
-3.34902e-121
-3.41217e-122
1.90249e-123
9.64638e-124
9.96662e-125
-5.13081e-126
-2.71489e-126
-2.82114e-127
1.38036e-128
7.4695e-129
7.74541e-130
-3.7116e-131
-2.00967e-131
-2.06383e-132
9.97599e-134
5.28866e-134
5.33918e-135
-2.67616e-136
-1.36141e-136
-1.34128e-137
7.14496e-139
3.42806e-139
3.27182e-140
-1.89179e-141
-8.44266e-142
-7.74764e-143
4.94901e-144
2.0333e-144
1.7801e-145
-1.27481e-146
-4.78747e-147
-3.96532e-148
3.22385e-149
1.1017e-149
8.55419e-151
-7.98515e-152
-2.47694e-152
-1.78425e-153
1.93365e-154
5.43872e-155
3.59031e-156
-4.57169e-157
-1.16577e-157
-6.94711e-159
1.05427e-159
2.43813e-160
1.28644e-161
-2.36976e-162
-4.97277e-163
-2.26271e-164
5.18949e-165
9.88501e-166
3.73299e-167
-1.10679e-167
-1.91382e-168
-5.64172e-170
2.29839e-170
3.60607e-171
7.40763e-173
-4.64644e-173
-6.60654e-174
-7.13885e-176
9.143e-176
1.17553e-176
6.99024e-181
-1.75092e-178
-2.02866e-179
2.43385e-181
3.26277e-181
3.38938e-182
-8.74563e-184
-5.91513e-184
-5.46927e-185
2.29803e-186
1.04303e-186
8.49584e-188
-5.23969e-189
-1.78835e-189
-1.26438e-190
1.09354e-191
2.98026e-192
1.78966e-193
-2.13904e-194
-4.82485e-195
-2.38023e-196
3.97106e-197
7.58309e-198
2.90872e-199
-7.04865e-200
-1.156e-200
-3.1092e-202
1.20183e-202
1.70733e-203
2.50193e-205
-1.97446e-205
-2.43914e-206
-3.0166e-209
3.13201e-208
3.36342e-209
-4.68199e-211
-4.80355e-211
-4.46302e-212
1.41354e-213
7.12925e-214
5.6734e-215
-3.02978e-216
-1.0244e-216
-6.86176e-218
5.59518e-219
1.42525e-219
7.80658e-221
-9.43104e-222
-1.91956e-222
-8.18188e-224
1.48769e-224
2.50113e-225
7.55196e-227
-2.22504e-227
-3.14946e-228
-5.38267e-230
3.17922e-230
3.82634e-231
1.07442e-233
-4.36008e-233
-4.47406e-234
5.98037e-236
5.75643e-236
5.01608e-237
-1.63167e-238
-7.33013e-239
-5.36102e-240
3.03001e-241
9.01251e-242
5.41019e-243
-4.80254e-244
-1.07043e-244
-5.06855e-246
6.92282e-247
1.22803e-247
4.25797e-249
-9.32278e-250
-1.35989e-250
-2.931e-252
1.18918e-252
1.45162e-253
1.08314e-255
-1.44818e-255
-1.49028e-256
1.23903e-258
1.69186e-258
1.46616e-259
-3.93566e-261
-1.90188e-261
-1.37435e-262
6.8587e-264
2.06097e-264
1.21578e-265
-9.82417e-267
-2.15497e-267
-9.97562e-269
1.26305e-269
2.1747e-270
7.326e-272
-1.50802e-272
-2.11713e-273
-4.38288e-275
1.70022e-275
1.98586e-276
1.34674e-278
-1.82708e-278
-1.79077e-279
1.57758e-281
1.88189e-281
1.54678e-282
-4.20315e-284
-1.86434e-284
-1.27209e-285
6.38e-287
1.78021e-287
9.86094e-289
-8.0085e-290
-1.64038e-290
-7.07229e-292
9.04532e-293
1.4592e-293
4.51234e-295
-9.50194e-296
-1.25268e-296
-2.2986e-298
9.43664e-299
1.03665e-299
5.02549e-302
-8.94187e-302
-8.25217e-303
8.50257e-305
8.12947e-305
6.29658e-306
-1.7746e-307
-7.11605e-308
-4.5783e-309
2.31636e-310
6.01045e-311
3.14091e-312
-2.54144e-313
-4.90475e-314
-1.99643e-315
2.52481e-316
3.86898e-317
1.13147e-318
-2.34098e-319
-2.95204e-320
-5.2865e-322
2.02567e-322
9.88131e-324
0
0
0
0
0
0
0
0
0
0
0
0
)
;

boundaryField
{
    sides
    {
        type            zeroGradient;
    }
    empty
    {
        type            empty;
    }
}


// ************************************************************************* //
