/*--------------------------------*- C++ -*----------------------------------*\
| =========                 |                                                 |
| \\      /  F ield         | OpenFOAM: The Open Source CFD Toolbox           |
|  \\    /   O peration     | Version:  2312                                  |
|   \\  /    A nd           | Website:  www.openfoam.com                      |
|    \\/     M anipulation  |                                                 |
\*---------------------------------------------------------------------------*/
FoamFile
{
    version     2.0;
    format      ascii;
    arch        "LSB;label=32;scalar=64";
    class       volScalarField;
    location    "5";
    object      T;
}
// * * * * * * * * * * * * * * * * * * * * * * * * * * * * * * * * * * * * * //

dimensions      [0 0 0 1 0 0 0];

internalField   nonuniform List<scalar> 
1000
(
0
0
0
0
0
0
0
0
0
0
0
0
0
0
0
0
0
0
0
0
0
0
0
0
0
0
0
0
0
0
0
0
0
0
0
0
0
0
0
0
0
0
0
0
0
0
0
0
0
0
0
0
0
0
0
0
0
0
0
0
0
0
0
0
0
0
0
0
0
0
0
0
0
0
0
0
0
0
0
0
0
0
0
0
0
0
0
0
0
0
0
0
0
0
0
0
0
0
0
0
0
0
0
0
0
0
0
0
0
0
0
0
0
0
0
0
0
0
0
0
0
0
0
0
0
0
0
0
0
0
0
0
0
0
0
0
0
0
0
0
0
0
0
0
0
0
0
0
0
0
0
0
0
0
0
0
0
0
0
0
0
0
0
0
0
0
0
0
0
0
0
0
0
0
0
0
0
0
0
0
0
0
0
0
0
0
0
0
0
0
0
0
0
0
0
0
0
0
0
0
0
0
0
0
0
0
0
0
0
0
0
0
0
0
0
0
0
0
0
0
1.90215e-321
1.24277e-319
7.79854e-318
4.87081e-316
3.02942e-314
1.87622e-312
1.15709e-310
7.10559e-309
4.34485e-307
2.64534e-305
1.60366e-303
9.6796e-302
5.81713e-300
3.48063e-298
2.07345e-296
1.22973e-294
7.26093e-293
4.26812e-291
2.49765e-289
1.45501e-287
8.43789e-286
4.87105e-284
2.79913e-282
1.60113e-280
9.11633e-279
5.1665e-277
2.91437e-275
1.63626e-273
9.14353e-272
5.08528e-270
2.81479e-268
1.55058e-266
8.50067e-265
4.63776e-263
2.51797e-261
1.3604e-259
7.31389e-258
3.91275e-256
2.08285e-254
1.10322e-252
5.81411e-251
3.04867e-249
1.5905e-247
8.25537e-246
4.26294e-244
2.18998e-242
1.11922e-240
5.69013e-239
2.87772e-237
1.44771e-235
7.24447e-234
3.60589e-232
1.78519e-230
8.79046e-229
4.30504e-227
2.09686e-225
1.01571e-223
4.89297e-222
2.344e-220
1.11663e-218
5.28954e-217
2.49152e-215
1.16691e-213
5.43398e-212
2.5159e-210
1.1581e-208
5.29986e-207
2.41117e-205
1.09049e-203
4.90268e-202
2.19099e-200
9.73264e-199
4.2972e-197
1.88576e-195
8.22468e-194
3.56504e-192
1.53569e-190
6.57386e-189
2.79638e-187
1.18198e-185
4.9642e-184
2.07152e-182
8.5884e-181
3.53753e-179
1.44754e-177
5.8842e-176
2.376e-174
9.52995e-173
3.79661e-171
1.50225e-169
5.90352e-168
2.30397e-166
8.92932e-165
3.43649e-163
1.31323e-161
4.98284e-160
1.87714e-158
7.02067e-157
2.60674e-155
9.60791e-154
3.51518e-152
1.27653e-150
4.60097e-149
1.64581e-147
5.84247e-146
2.05812e-144
7.19409e-143
2.49508e-141
8.58556e-140
2.93089e-138
9.9254e-137
3.33415e-135
1.11092e-133
3.67118e-132
1.20317e-130
3.91032e-129
1.26018e-127
4.02674e-126
1.27568e-124
4.0065e-123
1.24735e-121
3.84924e-120
1.17731e-118
3.56863e-117
1.07193e-115
3.19044e-114
9.40837e-113
2.74865e-111
7.95472e-110
2.2803e-108
6.47407e-107
1.82029e-105
5.06801e-104
1.39709e-102
3.81292e-101
1.03013e-99
2.75471e-98
7.29067e-97
1.90948e-95
4.94847e-94
1.26877e-92
3.2181e-91
8.07361e-90
2.00324e-88
4.9152e-87
1.19244e-85
2.85993e-84
6.78024e-83
1.5887e-81
3.6786e-80
8.41601e-79
1.90215e-77
4.24654e-76
9.36278e-75
2.03838e-73
4.38132e-72
9.29583e-71
1.94653e-69
4.02201e-68
8.19893e-67
1.64861e-65
3.26922e-64
6.39215e-63
1.23207e-61
2.34057e-60
4.38134e-59
8.0797e-58
1.46753e-56
2.62468e-55
4.62123e-54
8.00794e-53
1.36537e-51
2.28999e-50
3.77696e-49
6.12429e-48
9.75982e-47
1.52815e-45
2.35012e-44
3.54871e-43
5.25964e-42
7.64877e-41
1.09098e-39
1.52568e-38
2.09102e-37
2.80749e-36
3.69112e-35
4.74983e-34
5.97965e-33
7.36097e-32
8.85593e-31
1.04073e-29
1.194e-28
1.33651e-27
1.45874e-26
1.55144e-25
1.60675e-24
1.61922e-23
1.58664e-22
1.51049e-21
1.39591e-20
1.25115e-19
1.08658e-18
9.13439e-18
7.42498e-17
5.82931e-16
4.41487e-15
3.22132e-14
2.26132e-13
1.52496e-12
9.86333e-12
6.10819e-11
3.61506e-10
2.04061e-09
1.09622e-08
5.59117e-08
2.70055e-07
1.23176e-06
5.28923e-06
2.13105e-05
8.02677e-05
0.000281513
0.000915335
0.00274634
0.00756579
0.0190383
0.0435329
0.0900168
0.167671
0.280766
0.423101
0.576899
0.719234
0.832329
0.909983
0.956467
0.980962
0.992434
0.997254
0.999085
0.999718
0.99992
0.999979
0.999995
0.999999
1
1
1
1
1
1
1
1
1
1
1
1
1
1
1
1
1
1
1
1
1
1
1
1
1
1
1
1
1
1
1
1
1
1
1
1
1
1
1
1
1
1
1
1
1
1
1
1
1
1
1
1
1
1
1
1
1
1
1
1
1
1
1
1
1
1
1
1
1
1
1
1
0.999999
0.999995
0.999979
0.99992
0.999718
0.999085
0.997254
0.992434
0.980962
0.956467
0.909983
0.832329
0.719234
0.576899
0.423101
0.280766
0.167671
0.0900168
0.0435329
0.0190383
0.00756579
0.00274634
0.000915335
0.000281513
8.02677e-05
2.13105e-05
5.28923e-06
1.23176e-06
2.70055e-07
5.59117e-08
1.09622e-08
2.04061e-09
3.61506e-10
6.10819e-11
9.86333e-12
1.52496e-12
2.26132e-13
3.22132e-14
4.41487e-15
5.82931e-16
7.42498e-17
9.13439e-18
1.08658e-18
1.25115e-19
1.39591e-20
1.51049e-21
1.58664e-22
1.61922e-23
1.60675e-24
1.55144e-25
1.45874e-26
1.33651e-27
1.194e-28
1.04073e-29
8.85593e-31
7.36097e-32
5.97965e-33
4.74983e-34
3.69112e-35
2.80749e-36
2.09102e-37
1.52568e-38
1.09098e-39
7.64877e-41
5.25964e-42
3.54871e-43
2.35012e-44
1.52815e-45
9.75982e-47
6.12429e-48
3.77696e-49
2.28999e-50
1.36537e-51
8.00794e-53
4.62123e-54
2.62468e-55
1.46753e-56
8.0797e-58
4.38134e-59
2.34057e-60
1.23207e-61
6.39215e-63
3.26922e-64
1.64861e-65
8.19893e-67
4.02201e-68
1.94653e-69
9.29583e-71
4.38132e-72
2.03838e-73
9.36278e-75
4.24654e-76
1.90215e-77
8.41601e-79
3.6786e-80
1.5887e-81
6.78024e-83
2.85993e-84
1.19244e-85
4.9152e-87
2.00324e-88
8.07361e-90
3.2181e-91
1.26877e-92
4.94847e-94
1.90948e-95
7.29067e-97
2.75471e-98
1.03013e-99
3.81292e-101
1.39709e-102
5.06801e-104
1.82029e-105
6.47407e-107
2.2803e-108
7.95472e-110
2.74865e-111
9.40837e-113
3.19044e-114
1.07193e-115
3.56863e-117
1.17731e-118
3.84924e-120
1.24735e-121
4.0065e-123
1.27568e-124
4.02674e-126
1.26018e-127
3.91032e-129
1.20317e-130
3.67118e-132
1.11092e-133
3.33415e-135
9.9254e-137
2.93089e-138
8.58556e-140
2.49508e-141
7.19409e-143
2.05812e-144
5.84247e-146
1.64581e-147
4.60097e-149
1.27653e-150
3.51518e-152
9.60791e-154
2.60674e-155
7.02067e-157
1.87714e-158
4.98284e-160
1.31323e-161
3.43649e-163
8.92932e-165
2.30397e-166
5.90352e-168
1.50225e-169
3.79661e-171
9.52995e-173
2.376e-174
5.8842e-176
1.44754e-177
3.53753e-179
8.5884e-181
2.07152e-182
4.9642e-184
1.18198e-185
2.79638e-187
6.57386e-189
1.53569e-190
3.56504e-192
8.22468e-194
1.88576e-195
4.2972e-197
9.73264e-199
2.19099e-200
4.90268e-202
1.09049e-203
2.41117e-205
5.29986e-207
1.1581e-208
2.5159e-210
5.43398e-212
1.16691e-213
2.49152e-215
5.28954e-217
1.11663e-218
2.344e-220
4.89297e-222
1.01571e-223
2.09686e-225
4.30504e-227
8.79046e-229
1.78519e-230
3.60589e-232
7.24447e-234
1.44771e-235
2.87772e-237
5.69013e-239
1.11922e-240
2.18998e-242
4.26294e-244
8.25537e-246
1.5905e-247
3.04867e-249
5.81411e-251
1.10322e-252
2.08285e-254
3.91275e-256
7.31389e-258
1.3604e-259
2.51797e-261
4.63776e-263
8.50067e-265
1.55058e-266
2.81479e-268
5.08528e-270
9.14353e-272
1.63626e-273
2.91437e-275
5.1665e-277
9.11633e-279
1.60113e-280
2.79913e-282
4.87105e-284
8.43789e-286
1.45501e-287
2.49765e-289
4.26812e-291
7.26093e-293
1.22973e-294
2.07345e-296
3.48063e-298
5.81713e-300
9.6796e-302
1.60366e-303
2.64534e-305
4.34485e-307
7.10559e-309
1.15709e-310
1.87622e-312
3.02942e-314
4.87081e-316
7.79854e-318
1.24277e-319
1.90215e-321
0
0
0
0
0
0
0
0
0
0
0
0
0
0
0
0
0
0
0
0
0
0
0
0
0
0
0
0
0
0
0
0
0
0
0
0
0
0
0
0
0
0
0
0
0
0
0
0
0
0
0
0
0
0
0
0
0
0
0
0
0
0
0
0
0
0
0
0
0
0
0
0
0
0
0
0
0
0
0
0
0
0
0
0
0
0
0
0
0
0
0
0
0
0
0
0
0
0
0
0
0
0
0
0
0
0
0
0
0
0
0
0
0
0
0
0
0
0
0
0
0
0
0
0
0
0
0
0
0
0
0
0
0
0
0
0
0
0
0
0
0
0
0
0
0
0
0
0
0
0
0
0
0
0
0
0
0
0
0
0
0
0
0
0
0
0
0
0
0
0
0
0
0
0
0
0
0
0
0
0
0
0
0
0
0
0
0
0
0
0
0
0
0
0
0
0
0
0
0
0
0
0
0
0
0
0
0
0
0
0
0
0
0
0
0
0
0
0
0
0
)
;

boundaryField
{
    sides
    {
        type            zeroGradient;
    }
    empty
    {
        type            empty;
    }
}


// ************************************************************************* //
