/*--------------------------------*- C++ -*----------------------------------*\
| =========                 |                                                 |
| \\      /  F ield         | OpenFOAM: The Open Source CFD Toolbox           |
|  \\    /   O peration     | Version:  2312                                  |
|   \\  /    A nd           | Website:  www.openfoam.com                      |
|    \\/     M anipulation  |                                                 |
\*---------------------------------------------------------------------------*/
FoamFile
{
    version     2.0;
    format      ascii;
    arch        "LSB;label=32;scalar=64";
    class       volScalarField;
    location    "1.2";
    object      T;
}
// * * * * * * * * * * * * * * * * * * * * * * * * * * * * * * * * * * * * * //

dimensions      [0 0 0 1 0 0 0];

internalField   nonuniform List<scalar> 
1000
(
0
0
0
0
0
0
0
0
0
0
0
0
0
0
0
0
0
0
0
0
0
0
0
0
0
0
0
0
0
0
0
0
0
0
0
0
0
0
0
0
0
0
0
0
0
0
0
0
0
0
0
0
0
0
0
0
0
0
0
0
0
0
0
0
0
0
0
0
0
0
0
0
0
0
0
0
0
0
0
0
0
0
0
0
0
0
0
0
0
0
0
0
0
0
0
0
0
0
0
0
0
0
0
0
0
0
0
0
0
0
0
0
0
0
0
0
0
0
0
0
0
0
0
0
0
0
0
0
0
0
0
0
0
0
0
0
0
0
0
0
0
0
0
0
0
0
0
0
0
0
0
0
0
0
0
0
0
0
0
0
0
0
0
0
0
0
0
0
0
0
0
0
0
0
0
0
0
0
0
0
0
0
0
0
0
0
0
0
0
0
0
0
0
0
0
0
0
0
0
0
0
0
0
0
0
0
0
0
0
0
0
0
0
0
0
0
0
0
0
0
0
0
0
0
0
0
0
0
0
0
0
0
0
0
0
0
0
0
0
0
0
0
0
0
0
0
0
0
0
0
0
0
0
0
0
0
0
0
0
0
0
0
0
0
0
0
0
0
0
0
0
0
0
0
0
0
0
0
0
0
0
0
0
0
0
0
0
0
0
0
0
0
0
0
0
0
0
0
0
0
0
0
0
0
0
0
0
0
0
0
0
0
0
0
0
0
0
0
0
0
0
0
0
0
0
0
0
0
0
0
0
0
0
0
0
0
0
0
0
0
0
0
0
0
0
0
0
0
0
0
0
0
0
0
0
0
0
0
0
0
0
0
0
0
0
0
0
0
0
0
0
0
0
0
0
0
0
0
0
0
0
0
0
0
0
0
0
0
0
0
0
0
0
0
0
0
0
0
0
0
0
0
0
0
0
0
0
0
0
0
0
0
0
0
0
0
0
0
0
0
0
0
0
0
0
0
0
0
0
0
0
0
0
0
0
0
0
0
0
0
0
0
0
0
0
0
0
0
0
0
5.41312e-35
4.18778e-33
1.6215e-31
4.1897e-30
8.12715e-29
1.26245e-27
1.63582e-26
1.81863e-25
1.77089e-24
1.53435e-23
1.19766e-22
8.50723e-22
5.54491e-21
3.33949e-20
1.86949e-19
9.77802e-19
4.79951e-18
2.21954e-17
9.70418e-17
4.02372e-16
1.58664e-15
5.96483e-15
2.14278e-14
7.37085e-14
2.43245e-13
7.71457e-13
2.35517e-12
6.93142e-12
1.96929e-11
5.40809e-11
1.43729e-10
3.70085e-10
9.24206e-10
2.24066e-09
5.27873e-09
1.2095e-08
2.69756e-08
5.86086e-08
1.24137e-07
2.56509e-07
5.17431e-07
1.0196e-06
1.96384e-06
3.6994e-06
6.81947e-06
1.23083e-05
2.17618e-05
3.77103e-05
6.40766e-05
0.000106811
0.000174742
0.000280696
0.000442906
0.000686748
0.00104681
0.00156922
0.00231425
0.00335895
0.00479976
0.00675474
0.00936522
0.0127966
0.0172377
0.0228991
0.0300087
0.0388068
0.0495378
0.0624411
0.0777406
0.0956323
0.116273
0.139768
0.166161
0.195427
0.227464
0.262096
0.299068
0.338057
0.378678
0.420495
0.463039
0.505822
0.548353
0.590158
0.630791
0.669851
0.706991
0.741926
0.77444
0.804383
0.831674
0.856293
0.878277
0.897713
0.914725
0.929472
0.942131
0.952894
0.961958
0.969521
0.975773
0.980894
0.98505
0.988394
0.99106
0.993166
0.994817
0.996099
0.997086
0.99784
0.998411
0.99884
0.999159
0.999395
0.999568
0.999694
0.999785
0.999849
0.999896
0.999928
0.999951
0.999967
0.999977
0.999985
0.99999
0.999993
0.999996
0.999997
0.999998
0.999999
0.999999
1
1
1
1
1
1
1
1
1
0.999999
0.999999
0.999998
0.999996
0.999993
0.999988
0.999978
0.999962
0.999936
0.999893
0.999825
0.999719
0.999557
0.999313
0.998953
0.998431
0.997686
0.996641
0.9952
0.993245
0.990635
0.987203
0.982762
0.977101
0.969991
0.961193
0.950462
0.937559
0.922259
0.904368
0.883727
0.860232
0.833839
0.804573
0.772536
0.737904
0.700932
0.661943
0.621322
0.579505
0.536961
0.494178
0.451647
0.409842
0.369209
0.330149
0.293009
0.258074
0.22556
0.195617
0.168326
0.143707
0.121723
0.102287
0.0852748
0.0705282
0.0578694
0.0471065
0.0380418
0.0304788
0.0242269
0.0191061
0.0149497
0.0116062
0.00894046
0.00683373
0.00518321
0.00390123
0.00291394
0.00216002
0.00158909
0.00116031
0.00084092
0.000604935
0.000431973
0.00030621
0.000215485
0.000150547
0.000104425
7.19173e-05
4.91792e-05
3.33942e-05
2.25175e-05
1.50783e-05
1.00274e-05
6.62286e-06
4.34459e-06
2.83085e-06
1.8322e-06
1.17797e-06
7.52352e-07
4.77371e-07
3.00925e-07
1.88472e-07
1.17285e-07
7.25215e-08
4.4559e-08
2.72063e-08
1.65077e-08
9.95428e-09
5.96559e-09
3.55336e-09
2.1037e-09
1.23795e-09
7.24139e-10
4.21069e-10
2.43397e-10
1.39871e-10
7.99107e-11
4.53906e-11
2.56347e-11
1.43949e-11
8.03751e-12
4.46258e-12
2.46387e-12
1.3528e-12
7.38664e-13
4.01122e-13
2.16639e-13
1.16371e-13
6.21745e-14
3.30414e-14
1.74661e-14
9.18418e-15
4.80404e-15
2.49983e-15
1.29409e-15
6.66472e-16
3.41491e-16
1.74089e-16
8.83017e-17
4.45644e-17
2.2379e-17
1.11826e-17
5.56036e-18
2.75131e-18
1.35476e-18
6.63873e-19
3.23758e-19
1.57138e-19
7.5907e-20
3.64948e-20
1.7464e-20
8.3182e-21
3.94369e-21
1.86112e-21
8.74292e-22
4.08846e-22
1.90326e-22
8.82022e-23
4.06928e-23
1.86906e-23
8.54687e-24
3.89117e-24
1.76382e-24
7.96047e-25
3.57721e-25
1.6006e-25
7.13122e-26
3.16372e-26
1.39764e-26
6.14845e-27
2.69352e-27
1.17508e-27
5.10527e-28
2.20893e-28
9.51851e-29
4.08496e-29
1.74602e-29
7.43295e-30
3.15162e-30
1.33099e-30
5.59884e-31
2.34589e-31
9.79073e-32
4.07031e-32
1.6856e-32
6.95356e-33
2.85753e-33
1.16981e-33
4.77078e-34
1.9383e-34
7.84549e-35
3.16368e-35
1.27101e-35
5.08739e-36
2.02881e-36
8.06108e-37
3.19125e-37
1.25878e-37
4.94735e-38
1.93746e-38
7.56029e-39
2.93967e-39
1.13899e-39
4.39753e-40
1.6919e-40
6.4867e-41
2.47836e-41
9.43632e-42
3.58052e-42
1.35395e-42
5.10244e-43
1.91637e-43
7.17325e-44
2.67603e-44
9.94981e-45
3.68716e-45
1.36185e-45
5.01343e-46
1.83956e-46
6.7278e-47
2.45256e-47
8.91169e-48
3.22775e-48
1.16532e-48
4.19378e-49
1.50447e-49
5.38005e-50
1.91788e-50
6.81542e-51
2.41439e-51
8.52653e-52
3.00188e-52
1.0536e-52
3.68657e-53
1.28601e-53
4.47246e-54
1.55071e-54
5.36053e-55
1.84748e-55
6.34825e-56
2.17488e-56
7.42898e-57
2.53012e-57
8.59168e-58
2.909e-58
9.82074e-59
3.30586e-59
1.10961e-59
3.7137e-60
1.23936e-60
4.12431e-61
1.36858e-61
4.52857e-62
1.49427e-62
4.91673e-63
1.61329e-63
5.27883e-64
1.7225e-64
5.60511e-65
1.81892e-65
5.88648e-66
1.89982e-66
6.11491e-67
1.96288e-67
6.28385e-68
2.00629e-68
6.38852e-69
2.02885e-69
6.42614e-70
2.03003e-70
6.39607e-71
2.00995e-71
6.29977e-72
1.9694e-72
6.14073e-73
1.90979e-73
5.92426e-74
1.83304e-74
5.65721e-75
1.74153e-75
5.34759e-76
1.63792e-76
5.00422e-77
1.52508e-77
4.63627e-78
1.40594e-78
4.25294e-79
1.28334e-79
3.86305e-80
1.15999e-80
3.47475e-81
1.03833e-81
3.09528e-82
9.20486e-83
2.73081e-83
8.08217e-84
2.38633e-84
7.02911e-85
2.06559e-85
6.0557e-86
1.77119e-86
5.16832e-87
1.5046e-87
4.37004e-88
1.26632e-88
3.66102e-89
1.05599e-89
3.03897e-90
8.72573e-91
2.49971e-91
7.14485e-92
2.03759e-92
5.79781e-93
1.64603e-93
4.66275e-94
1.31789e-94
3.71667e-95
1.04585e-95
2.93648e-96
8.22683e-97
2.29979e-97
6.41501e-98
1.78552e-98
4.95895e-99
1.37429e-99
3.80045e-100
1.04872e-100
2.88775e-101
7.93475e-102
2.17564e-102
5.95282e-103
1.62534e-103
4.42846e-104
1.20408e-104
3.267e-105
8.84591e-106
2.39021e-106
6.44515e-107
1.73435e-107
4.65747e-108
1.24818e-108
3.33823e-109
8.90997e-110
2.37332e-110
6.30901e-111
1.67376e-111
4.43153e-112
1.17097e-112
3.088e-113
8.12726e-114
2.13478e-114
5.59635e-115
1.46421e-115
3.82342e-116
9.96441e-117
2.59183e-117
6.72851e-118
1.74338e-118
4.50844e-119
1.16366e-119
2.99774e-120
7.70786e-121
1.97809e-121
5.06681e-122
1.29539e-122
3.30559e-123
8.41939e-124
2.14042e-124
5.43131e-125
1.37563e-125
3.47771e-126
8.77568e-127
2.21038e-127
5.55717e-128
1.39458e-128
3.49335e-129
8.73468e-130
2.18003e-130
5.43116e-131
1.35063e-131
3.35275e-132
8.30777e-133
2.0549e-133
5.07368e-134
1.25049e-134
3.0766e-135
7.55599e-136
1.85245e-136
4.53355e-137
1.10757e-137
2.70111e-138
6.57593e-139
1.59815e-139
3.87728e-140
9.39046e-141
2.27038e-141
5.4798e-142
1.32035e-142
3.17592e-143
7.62628e-144
1.82818e-144
4.37513e-145
1.04527e-145
2.49309e-146
5.93635e-147
1.41115e-147
3.34891e-148
7.93437e-149
1.87673e-149
4.43171e-150
1.04478e-150
2.45905e-151
5.77826e-152
1.35555e-152
3.17489e-153
7.42395e-154
1.73316e-154
4.0396e-155
)
;

boundaryField
{
    sides
    {
        type            zeroGradient;
    }
    empty
    {
        type            empty;
    }
}


// ************************************************************************* //
