/*--------------------------------*- C++ -*----------------------------------*\
| =========                 |                                                 |
| \\      /  F ield         | OpenFOAM: The Open Source CFD Toolbox           |
|  \\    /   O peration     | Version:  2312                                  |
|   \\  /    A nd           | Website:  www.openfoam.com                      |
|    \\/     M anipulation  |                                                 |
\*---------------------------------------------------------------------------*/
FoamFile
{
    version     2.0;
    format      ascii;
    arch        "LSB;label=32;scalar=64";
    class       volScalarField;
    location    "1.9";
    object      T;
}
// * * * * * * * * * * * * * * * * * * * * * * * * * * * * * * * * * * * * * //

dimensions      [0 0 0 1 0 0 0];

internalField   nonuniform List<scalar> 
1000
(
0
0
0
0
0
0
0
0
0
0
0
0
0
0
0
0
0
0
0
0
0
0
0
0
0
0
0
0
0
0
0
0
0
0
0
0
0
0
0
0
0
0
0
0
0
0
0
0
0
0
0
0
0
0
0
0
0
0
9.88131e-324
-2.47033e-322
3.60668e-321
-5.35666e-320
7.97373e-319
-1.1828e-317
1.7485e-316
-2.5759e-315
3.78177e-314
-5.533e-313
8.06717e-312
-1.17213e-310
1.69714e-309
-2.44875e-308
3.5209e-307
-5.04477e-306
7.20283e-305
-1.02479e-303
1.4529e-302
-2.05257e-301
2.8895e-300
-4.05323e-299
5.66542e-298
-7.89064e-297
1.09506e-295
-1.51426e-294
2.08643e-293
-2.86442e-292
3.91833e-291
-5.34059e-290
7.25267e-289
-9.8135e-288
1.32301e-286
-1.77709e-285
2.37828e-284
-3.17114e-283
4.21273e-282
-5.57576e-281
7.35245e-280
-9.65926e-279
1.26425e-277
-1.64854e-276
2.14159e-275
-2.77164e-274
3.57355e-273
-4.59008e-272
5.87344e-271
-7.48709e-270
9.50772e-269
-1.20276e-267
1.51571e-266
-1.90274e-265
2.37941e-264
-2.964e-263
3.67793e-262
-4.54608e-261
5.59727e-260
-6.86461e-259
8.38591e-258
-1.02041e-256
1.23676e-255
-1.49305e-254
1.7953e-253
-2.15016e-252
2.56489e-251
-3.04737e-250
3.60608e-249
-4.25005e-248
4.9888e-247
-5.83223e-246
6.79056e-245
-7.87413e-244
9.09327e-243
-1.04581e-241
1.19783e-240
-1.36628e-239
1.55196e-238
-1.75556e-237
1.97759e-236
-2.21838e-235
2.47805e-234
-2.75646e-233
3.0532e-232
-3.36754e-231
3.69846e-230
-4.04455e-229
4.4041e-228
-4.775e-227
5.15481e-226
-5.54075e-225
5.92973e-224
-6.31837e-223
6.70303e-222
-7.0799e-221
7.44503e-220
-7.79438e-219
8.12391e-218
-8.42968e-217
8.70786e-216
-8.95486e-215
9.1674e-214
-9.34257e-213
9.47788e-212
-9.57137e-211
9.62158e-210
-9.62767e-209
9.58937e-208
-9.50704e-207
9.38165e-206
-9.21475e-205
9.00845e-204
-8.76537e-203
8.48861e-202
-8.18163e-201
7.84823e-200
-7.49245e-199
7.11848e-198
-6.73059e-197
6.33305e-196
-5.93003e-195
5.52556e-194
-5.12345e-193
4.72721e-192
-4.34006e-191
3.96482e-190
-3.60396e-189
3.25952e-188
-2.93317e-187
2.62614e-186
-2.33931e-185
2.07317e-184
-1.82789e-183
1.60333e-182
-1.39907e-181
1.21449e-180
-1.04875e-179
9.00872e-179
-7.69762e-178
6.54244e-177
-5.53098e-176
4.65085e-175
-3.88971e-174
3.23553e-173
-2.67673e-172
2.20233e-171
-1.80204e-170
1.46637e-169
-1.18659e-168
9.54824e-168
-7.64013e-167
6.07881e-166
-4.80909e-165
3.78286e-164
-2.95852e-163
2.30045e-162
-1.77837e-161
1.36673e-160
-1.0442e-159
7.9307e-159
-5.9875e-158
4.49336e-157
-3.35177e-156
2.48506e-155
-1.83123e-154
1.34114e-153
-9.76151e-153
7.06074e-152
-5.07524e-151
3.62509e-150
-2.57287e-149
1.81441e-148
-1.27131e-147
8.85004e-147
-6.12067e-146
4.20525e-145
-2.87014e-144
1.94586e-143
-1.31037e-142
8.76455e-142
-5.82232e-141
3.84123e-140
-2.51669e-139
1.63737e-138
-1.05779e-137
6.78525e-137
-4.3213e-136
2.73226e-135
-1.71499e-134
1.06858e-133
-6.60883e-133
4.05687e-132
-2.47158e-131
1.49432e-130
-8.96544e-130
5.33731e-129
-3.15256e-128
1.84741e-127
-1.07395e-126
6.19289e-126
-3.54203e-125
2.0092e-124
-1.13024e-123
6.30446e-123
-3.48674e-122
1.91179e-121
-1.03912e-120
5.59823e-120
-2.98916e-119
1.58165e-118
-8.29253e-118
4.30748e-117
-2.21649e-116
1.12969e-115
-5.70222e-115
2.85009e-114
-1.41039e-113
6.90908e-113
-3.3499e-112
1.60732e-111
-7.6305e-111
3.5835e-110
-1.66448e-109
7.64509e-109
-3.47155e-108
1.55813e-107
-6.91066e-107
3.02804e-106
-1.31043e-105
5.59947e-105
-2.36175e-104
9.82943e-104
-4.03533e-103
1.6335e-102
-6.51735e-102
2.56176e-101
-9.91543e-101
3.77707e-100
-1.41518e-99
5.21188e-99
-1.88532e-98
6.69299e-98
-2.32965e-97
7.94186e-97
-2.64828e-96
8.62516e-96
-2.73873e-95
8.45963e-95
-2.53497e-94
7.34275e-94
-2.04607e-93
5.4477e-93
-1.37187e-92
3.21331e-92
-6.78395e-92
1.1995e-91
-1.3498e-91
-1.42126e-91
1.58133e-90
-6.62506e-90
2.10029e-89
-5.5245e-89
1.19966e-88
-1.93362e-88
1.02781e-88
7.97541e-88
-4.2876e-87
1.40754e-86
-3.48564e-86
6.27128e-86
-4.90174e-86
-1.92933e-85
1.15024e-84
-3.68115e-84
8.22461e-84
-1.09691e-83
-6.97814e-84
9.91718e-83
-3.62559e-82
8.42858e-82
-1.09163e-81
-9.92178e-82
1.08605e-80
-3.63931e-80
7.30805e-80
-5.24467e-80
-2.59581e-79
1.31321e-78
-3.30208e-78
4.06125e-78
5.66632e-78
-4.60033e-77
1.31033e-76
-1.83391e-76
-1.62035e-76
1.70338e-75
-4.9206e-75
6.43806e-75
8.32597e-75
-6.7591e-74
1.74615e-73
-1.63662e-73
-5.30229e-73
2.71157e-72
-5.45642e-72
8.33398e-73
3.04094e-71
-9.92322e-71
1.20727e-70
2.31113e-70
-1.41691e-69
2.81155e-69
2.39651e-70
-1.74656e-68
4.85153e-68
-3.33237e-68
-1.94593e-67
7.33828e-67
-8.50231e-67
-2.03586e-66
1.04076e-65
-1.53565e-65
-2.11647e-65
1.43813e-64
-2.39378e-64
-2.40812e-64
1.98094e-63
-3.40318e-63
-3.32097e-63
2.74518e-62
-4.46341e-62
-5.54946e-62
3.80967e-61
-5.29389e-61
-1.01469e-60
5.2021e-60
-5.28109e-60
-1.84495e-59
6.7827e-59
-3.31848e-59
-3.1586e-58
8.05109e-58
2.20296e-58
-4.9206e-57
7.92423e-57
1.29192e-56
-6.72176e-56
4.68385e-56
2.90771e-55
-7.51971e-55
-3.4921e-55
4.70089e-54
-5.60634e-54
-1.69185e-53
5.65564e-53
7.10053e-54
-3.17566e-52
4.18249e-52
1.12843e-51
-3.80566e-51
-9.64701e-52
2.16888e-50
-2.25434e-50
-8.77761e-50
2.26657e-49
1.9881e-49
-1.43066e-48
5.47481e-49
6.95632e-48
-1.02166e-47
-2.60899e-47
7.93816e-47
6.02217e-47
-4.69742e-46
1.07665e-46
2.34399e-45
-2.50952e-45
-1.00891e-44
2.06909e-44
3.6539e-44
-1.3185e-43
-9.76102e-44
7.35018e-43
4.54387e-44
-3.75399e-42
1.83865e-42
1.79838e-41
-1.80426e-41
-8.20024e-41
1.2531e-40
3.59824e-40
-7.55248e-40
-1.53483e-39
4.20592e-39
6.43699e-39
-2.22749e-38
-2.69343e-38
1.13994e-37
1.14601e-37
-5.69121e-37
-5.06835e-37
2.78738e-36
2.37436e-36
-1.34257e-35
-1.18671e-35
6.35804e-35
6.2735e-35
-2.95147e-34
-3.43951e-34
1.33465e-33
1.91302e-33
-5.81692e-33
-1.05917e-32
2.40003e-32
5.75293e-32
-9.06725e-32
-3.02977e-31
2.90531e-31
1.5305e-30
-5.92849e-31
-7.32506e-30
-1.28513e-30
3.26501e-29
2.5591e-29
-1.31665e-28
-2.03019e-28
4.51857e-28
1.23787e-27
-1.08931e-27
-6.37154e-27
-3.30482e-28
2.7948e-26
2.57858e-26
-9.98009e-26
-2.05821e-25
2.39106e-25
1.1329e-24
1.13243e-25
-4.78463e-24
-5.63011e-24
1.43518e-23
4.03704e-23
-1.43681e-23
-1.88815e-22
-1.69312e-22
5.86098e-22
1.46079e-21
-5.50352e-22
-6.83674e-21
-7.02628e-21
1.85743e-20
5.54007e-20
3.79444e-21
-2.21545e-19
-3.48972e-19
3.66222e-19
1.98632e-18
1.68011e-18
-5.2679e-18
-1.54024e-17
-4.78126e-18
5.30459e-17
1.10725e-16
-1.42576e-17
-4.59894e-16
-7.788e-16
3.54228e-16
3.67911e-15
5.61648e-15
-3.3115e-15
-2.79378e-14
-4.27374e-14
2.00035e-14
2.0188e-13
3.41445e-13
-4.03566e-14
-1.35499e-12
-2.75737e-12
-1.00058e-12
7.90278e-12
2.12446e-11
1.92095e-11
-3.28648e-11
-1.44809e-10
-2.20657e-10
-6.5408e-12
7.64107e-10
1.86798e-09
1.88957e-09
-1.82897e-09
-1.10914e-08
-2.16733e-08
-1.73185e-08
2.90189e-08
1.33874e-07
2.54167e-07
2.27772e-07
-2.31828e-07
-1.37615e-06
-2.99822e-06
-3.79247e-06
-8.78254e-07
9.67906e-06
3.02024e-05
5.57472e-05
6.60716e-05
1.87767e-05
-0.000148821
-0.00049777
-0.00103304
-0.00160814
-0.00179146
-0.000714183
0.00306051
0.0115924
0.0274864
0.0536439
0.09284
0.147178
0.217523
0.303043
0.400999
0.50687
0.614839
0.71856
0.812075
0.890678
0.951548
0.994026
1.01949
1.03086
1.03198
1.02683
1.0189
1.01086
1.00431
0.999931
0.997672
0.997057
0.997455
0.998287
0.999137
0.999779
1.00015
1.00028
1.00027
1.00018
1.00009
1.00002
0.999982
0.999971
0.999976
0.999986
0.999995
1
1
1
1
1
1
1
1
1
1
1
1
1
1
1
1
1
1
1
1
1
1
1
1
1
1
1
1
1
1
1
1
1
1
1
1
1
1
1
1
1
1
1
1
1
1
1
1
0.99999
0.99997
0.999944
0.999934
0.999981
1.00015
1.0005
1.00103
1.00161
1.00179
1.00071
0.996939
0.988408
0.972514
0.946356
0.90716
0.852822
0.782477
0.696957
0.599001
0.49313
0.385161
0.28144
0.187925
0.109322
0.0484516
0.0059735
-0.0194852
-0.0308634
-0.031984
-0.0268255
-0.0189019
-0.0108563
-0.00430882
6.94675e-05
0.00232771
0.002943
0.00254521
0.00171325
0.000863307
0.000220963
-0.000148689
-0.000283695
-0.000266723
-0.000181279
-8.80455e-05
-1.88419e-05
1.81912e-05
2.89741e-05
2.44274e-05
1.44567e-05
5.33991e-06
-3.66155e-07
-2.65827e-06
-2.69376e-06
-1.75623e-06
-7.40803e-07
-5.77064e-08
2.3936e-07
2.68934e-07
1.79121e-07
7.54037e-08
5.8822e-09
-2.32419e-08
-2.51964e-08
-1.58742e-08
-5.96408e-09
1.60815e-10
2.35854e-09
2.18414e-09
1.20476e-09
3.41782e-10
-1.12816e-10
-2.25555e-10
-1.67311e-10
-7.37257e-11
-8.7574e-12
1.74823e-11
1.86049e-11
1.05862e-11
3.07616e-12
-8.39061e-13
-1.74919e-12
-1.23632e-12
-4.90962e-13
-1.83371e-14
1.42475e-13
1.25985e-13
6.03506e-14
1.05548e-14
-1.01536e-14
-1.16368e-14
-6.38374e-15
-1.622e-15
6.33697e-16
1.00027e-15
6.08818e-16
1.84949e-16
-3.45706e-17
-8.16997e-17
-5.36981e-17
-1.79314e-17
1.68202e-18
6.44823e-18
4.44743e-18
1.54942e-18
-8.38315e-20
-4.97716e-19
-3.48954e-19
-1.21721e-19
6.03828e-21
3.77857e-20
2.60401e-20
8.75277e-21
-6.6031e-22
-2.81846e-21
-1.84786e-21
-5.74529e-22
7.76312e-23
2.05178e-22
1.24234e-22
3.39577e-23
-8.28166e-24
-1.44315e-23
-7.85746e-24
-1.74816e-24
7.81628e-25
9.69631e-25
4.62402e-25
7.17492e-26
-6.57319e-26
-6.15059e-26
-2.48927e-26
-1.57021e-27
4.96956e-27
3.6382e-27
1.19052e-27
-8.98247e-29
-3.39531e-28
-1.97794e-28
-4.7536e-29
1.56622e-29
2.0979e-29
9.68407e-30
1.29866e-30
-1.39436e-30
-1.16737e-30
-4.12135e-31
6.89038e-33
9.65199e-32
5.78534e-32
1.40486e-32
-4.19438e-33
-5.63502e-33
-2.49396e-33
-2.77337e-34
3.73647e-34
2.83253e-34
8.85421e-35
-7.97404e-36
-2.35405e-35
-1.21697e-35
-2.17546e-36
1.28221e-36
1.20036e-36
4.29159e-37
-6.60965e-40
-8.88156e-38
-5.07565e-38
-1.08326e-38
4.16175e-39
4.55138e-39
1.73005e-39
5.92895e-41
-3.12578e-40
-1.86293e-40
-4.16699e-41
1.36698e-41
1.57361e-41
5.98266e-42
2.13367e-43
-1.04434e-42
-6.09642e-43
-1.29672e-43
4.67538e-44
4.99267e-44
1.79062e-44
1.2471e-46
-3.30937e-45
-1.78092e-45
-3.23647e-46
1.61012e-46
1.44671e-46
4.60324e-47
-2.59385e-48
-9.7878e-48
-4.60176e-48
-5.98086e-49
5.25591e-49
3.77748e-49
9.88055e-50
-1.7249e-50
-2.63912e-50
-1.03061e-50
-5.33317e-52
1.54876e-51
8.70731e-52
1.64449e-52
-6.98116e-53
-6.32498e-53
-1.92508e-53
1.39713e-54
3.99356e-54
1.7204e-54
1.6073e-55
-2.13802e-55
-1.31117e-55
-2.74898e-56
8.74423e-57
8.8115e-57
2.77224e-57
-1.37131e-58
-5.24367e-58
-2.2683e-58
-2.13957e-59
2.70317e-59
1.62351e-59
3.23516e-60
-1.11462e-60
-1.04314e-60
-3.06601e-61
2.48433e-62
6.04914e-62
2.39763e-62
1.44085e-63
-3.12955e-63
-1.65952e-63
-2.65991e-64
1.38644e-64
1.04397e-64
2.56901e-65
-4.57895e-66
-6.02588e-66
-1.99902e-66
2.96169e-68
3.18688e-67
1.37264e-67
1.25197e-68
-1.52275e-68
-8.60563e-69
-1.49753e-69
6.32011e-70
5.00096e-70
1.24159e-70
-2.0147e-71
-2.70978e-71
-8.75859e-72
1.99718e-73
1.36822e-72
5.58213e-73
3.99761e-74
-6.38655e-74
-3.29753e-74
-4.80485e-75
2.70006e-75
1.82856e-75
3.85231e-76
-9.81998e-77
-9.57879e-77
-2.61671e-77
2.58558e-78
4.75106e-78
1.60893e-78
2.52527e-81
-2.2286e-79
-9.20951e-80
-6.9938e-81
9.83344e-81
4.97871e-81
6.81349e-82
-4.03216e-82
-2.5629e-82
-4.89051e-83
1.49651e-83
1.26231e-83
3.05371e-84
-4.70601e-85
-5.96429e-85
-1.74908e-85
9.77161e-87
2.70604e-86
9.41269e-87
1.4843e-88
-1.17825e-87
-4.82141e-88
-3.49857e-89
4.91158e-89
2.36919e-89
2.85587e-90
-1.95029e-90
-1.12255e-90
-1.83201e-91
7.30737e-92
5.14639e-92
1.04368e-92
-2.53653e-93
-2.28845e-93
-5.51427e-94
7.83685e-95
9.88676e-95
2.75845e-95
-1.92368e-96
-4.15466e-96
-1.3217e-96
1.85661e-98
1.69932e-97
6.10994e-98
1.89876e-99
-6.76678e-99
-2.73842e-99
-1.89299e-100
2.62285e-100
1.1941e-100
1.22099e-101
-9.88892e-102
-5.07926e-102
-6.69676e-103
3.6219e-103
2.11188e-103
3.35488e-104
-1.28583e-104
-8.59731e-105
-1.58156e-105
4.4093e-106
3.43148e-106
7.12499e-107
-1.45226e-107
-1.34441e-107
-3.09613e-108
4.63962e-109
4.33274e-109
)
;

boundaryField
{
    sides
    {
        type            zeroGradient;
    }
    empty
    {
        type            empty;
    }
}


// ************************************************************************* //
