/*--------------------------------*- C++ -*----------------------------------*\
| =========                 |                                                 |
| \\      /  F ield         | OpenFOAM: The Open Source CFD Toolbox           |
|  \\    /   O peration     | Version:  2312                                  |
|   \\  /    A nd           | Website:  www.openfoam.com                      |
|    \\/     M anipulation  |                                                 |
\*---------------------------------------------------------------------------*/
FoamFile
{
    version     2.0;
    format      ascii;
    arch        "LSB;label=32;scalar=64";
    class       volScalarField;
    location    "3.2";
    object      T;
}
// * * * * * * * * * * * * * * * * * * * * * * * * * * * * * * * * * * * * * //

dimensions      [0 0 0 1 0 0 0];

internalField   nonuniform List<scalar> 
1000
(
0
0
0
0
0
0
0
0
0
0
0
0
0
0
0
0
0
0
0
0
0
0
0
0
0
0
0
0
0
0
0
0
0
0
0
0
0
0
0
0
0
0
0
0
0
0
0
0
0
0
0
0
0
0
0
0
0
0
0
0
0
0
0
0
0
0
0
0
0
0
0
0
0
0
0
0
0
0
0
0
0
0
0
0
0
0
0
0
0
0
0
0
0
0
0
0
0
0
0
0
0
0
0
0
0
0
0
0
0
0
0
0
0
0
0
0
0
0
0
0
0
0
0
0
0
0
0
0
0
0
0
0
0
0
0
0
0
0
0
0
0
0
0
0
0
0
0
0
0
0
0
0
0
0
0
0
0
0
0
0
0
0
0
0
0
0
0
0
0
0
0
0
0
0
0
0
0
0
0
0
0
0
0
0
0
0
0
0
0
0
0
0
0
0
0
0
0
0
0
0
0
0
0
0
0
0
0
0
0
0
0
0
0
0
0
0
0
0
0
0
0
0
0
0
0
0
0
0
0
0
0
0
0
0
0
0
0
0
0
0
0
0
0
0
0
0
0
0
0
0
0
0
0
0
0
0
0
0
0
0
0
0
0
0
0
0
0
0
0
0
0
0
0
0
0
0
0
0
0
0
0
0
0
0
0
0
0
0
0
0
0
0
0
0
0
0
0
0
0
0
0
0
0
0
0
0
0
0
0
0
0
0
0
0
0
0
0
0
0
0
0
0
0
0
0
0
0
0
0
0
0
0
0
0
0
0
0
0
0
0
0
0
0
0
0
0
0
0
0
0
0
0
0
0
0
0
0
0
0
0
0
0
0
0
0
0
0
0
0
0
0
0
0
0
0
0
0
0
0
0
0
0
0
0
0
0
0
0
0
0
0
0
0
0
0
0
0
0
0
0
0
0
0
0
0
0
0
0
0
0
0
0
0
0
0
0
0
0
0
0
0
0
0
0
0
0
0
0
0
0
0
0
0
0
0
0
0
0
0
0
0
0
0
0
0
0
0
0
0
0
4.19302e-92
8.58044e-90
8.78227e-88
5.99457e-86
3.06984e-84
1.25808e-82
4.29796e-81
1.25897e-79
3.22793e-78
7.35907e-77
1.51046e-75
2.81935e-74
4.82554e-73
7.62649e-72
1.1196e-70
1.53457e-69
1.97254e-68
2.38716e-67
2.72934e-66
2.95733e-65
3.04516e-64
2.98729e-63
2.79826e-62
2.50806e-61
2.15502e-60
1.7782e-59
1.41132e-58
1.079e-57
7.95744e-57
5.66801e-56
3.904e-55
2.60313e-54
1.68206e-53
1.05431e-52
6.41618e-52
3.7944e-51
2.18234e-50
1.22165e-49
6.66101e-49
3.53996e-48
1.83488e-47
9.28199e-47
4.58518e-46
2.2131e-45
1.04426e-44
4.81951e-44
2.17671e-43
9.62513e-43
4.16886e-42
1.76938e-41
7.36208e-41
3.00419e-40
1.20273e-39
4.72594e-39
1.82322e-38
6.90826e-38
2.57171e-37
9.4089e-37
3.38417e-36
1.19699e-35
4.16466e-35
1.42574e-34
4.80385e-34
1.59345e-33
5.20476e-33
1.67448e-32
5.30736e-32
1.65767e-31
5.1031e-31
1.54875e-30
4.63481e-30
1.36796e-29
3.98284e-29
1.14413e-28
3.2434e-28
9.07503e-28
2.50667e-27
6.83631e-27
1.84118e-26
4.89769e-26
1.287e-25
3.34136e-25
8.57225e-25
2.17348e-24
5.44718e-24
1.34959e-23
3.30605e-23
8.00849e-23
1.9186e-22
4.54641e-22
1.06575e-21
2.47173e-21
5.67228e-21
1.28818e-20
2.89541e-20
6.44176e-20
1.41876e-19
3.09368e-19
6.67951e-19
1.42812e-18
3.024e-18
6.34215e-18
1.31757e-17
2.71167e-17
5.52923e-17
1.11712e-16
2.23656e-16
4.43758e-16
8.72643e-16
1.70094e-15
3.28654e-15
6.29542e-15
1.19559e-14
2.25136e-14
4.20385e-14
7.78441e-14
1.42959e-13
2.60399e-13
4.70479e-13
8.4323e-13
1.4993e-12
2.64483e-12
4.62921e-12
8.03974e-12
1.38559e-11
2.36981e-11
4.02261e-11
6.77711e-11
1.13332e-10
1.8813e-10
3.1002e-10
5.07191e-10
8.2382e-10
1.32861e-09
2.12761e-09
3.3833e-09
5.34279e-09
8.37917e-09
1.30515e-08
2.01918e-08
3.10288e-08
4.73646e-08
7.18234e-08
1.08199e-07
1.61938e-07
2.40805e-07
3.5579e-07
5.22344e-07
7.62037e-07
1.10477e-06
1.59173e-06
2.27921e-06
3.2437e-06
4.58838e-06
6.45147e-06
9.01697e-06
1.25281e-05
1.73042e-05
2.37618e-05
3.24406e-05
4.40352e-05
5.94336e-05
7.97634e-05
0.000106447
0.000141268
0.000186445
0.000244722
0.00031947
0.000414802
0.000535703
0.000688174
0.000879392
0.00111788
0.00141369
0.00177859
0.0022263
0.00277264
0.00343576
0.00423635
0.0051978
0.00634633
0.00771119
0.00932469
0.0112222
0.0134424
0.0160267
0.0190197
0.0224684
0.0264221
0.0309324
0.0360518
0.0418341
0.0483328
0.055601
0.0636905
0.0726503
0.0825265
0.0933607
0.105189
0.118042
0.131943
0.146906
0.162938
0.180035
0.198185
0.217363
0.237535
0.258658
0.280674
0.303521
0.327121
0.351393
0.376245
0.401578
0.427289
0.453269
0.479409
0.505594
0.531712
0.557653
0.583307
0.608571
0.633346
0.657539
0.681065
0.703848
0.725819
0.746922
0.767106
0.786334
0.804576
0.821813
0.838035
0.85324
0.867436
0.880637
0.892863
0.904144
0.91451
0.924
0.932653
0.940513
0.947625
0.954036
0.959792
0.964942
0.969531
0.973605
0.977208
0.980383
0.983171
0.985608
0.987732
0.989576
0.991171
0.992544
0.993722
0.994728
0.995584
0.996308
0.996917
0.997425
0.997844
0.998186
0.998459
0.998669
0.998823
0.998923
0.998972
0.99897
0.998914
0.998802
0.998627
0.998383
0.99806
0.997646
0.997127
0.996485
0.995701
0.994754
0.993616
0.992259
0.990652
0.98876
0.986544
0.983963
0.980972
0.977526
0.973573
0.969064
0.963946
0.958164
0.951666
0.944398
0.936309
0.927349
0.917473
0.906639
0.89481
0.881957
0.868057
0.853094
0.837062
0.819965
0.801815
0.782637
0.762465
0.741342
0.719325
0.696479
0.672879
0.648607
0.623755
0.598422
0.572711
0.546731
0.520591
0.494406
0.468288
0.442347
0.416693
0.391429
0.366654
0.342461
0.318935
0.296152
0.274181
0.253078
0.232894
0.213666
0.195424
0.178187
0.161965
0.14676
0.132564
0.119363
0.107137
0.0958561
0.0854895
0.0759999
0.0673468
0.0594868
0.0523747
0.045964
0.0402076
0.0350581
0.0304691
0.0263949
0.0227913
0.0196158
0.0168279
0.0143894
0.0122644
0.0104192
0.008823
0.00744711
0.00626544
0.00525423
0.004392
0.00365941
0.0030392
0.00251599
0.00207615
0.00170772
0.00140017
0.00114433
0.000932264
0.000757076
0.000612855
0.000494534
0.000397794
0.000318968
0.000254956
0.000203149
0.000161362
0.000127769
0.000100853
7.93601e-05
6.22533e-05
4.86826e-05
3.79526e-05
2.94963e-05
2.28537e-05
1.76526e-05
1.35936e-05
1.04359e-05
7.98733e-06
6.09472e-06
4.6365e-06
3.51652e-06
2.65906e-06
2.00464e-06
1.50676e-06
1.12915e-06
8.43656e-07
6.28476e-07
4.66793e-07
3.45682e-07
2.55241e-07
1.87909e-07
1.37934e-07
1.00955e-07
7.36746e-08
5.36102e-08
3.88973e-08
2.81409e-08
2.03004e-08
1.46025e-08
1.04738e-08
7.4911e-09
5.34256e-09
3.79946e-09
2.69443e-09
1.9054e-09
1.34365e-09
9.44858e-10
6.62574e-10
4.63332e-10
3.23106e-10
2.24695e-10
1.55827e-10
1.0777e-10
7.43292e-11
5.11249e-11
3.50688e-11
2.39899e-11
1.63666e-11
1.11356e-11
7.55608e-12
5.11344e-12
3.45116e-12
2.32305e-12
1.55953e-12
1.04418e-12
6.97277e-13
4.64397e-13
3.08482e-13
2.04377e-13
1.3505e-13
8.90074e-14
5.85096e-14
3.8362e-14
2.50872e-14
1.63638e-14
1.06463e-14
6.90873e-15
4.47187e-15
2.88717e-15
1.85931e-15
1.19435e-15
7.65269e-16
4.89105e-16
3.11816e-16
1.98293e-16
1.25786e-16
7.95932e-17
5.0239e-17
3.16323e-17
1.98677e-17
1.24479e-17
7.77997e-18
4.85062e-18
3.01687e-18
1.8718e-18
1.15853e-18
7.15329e-19
4.40612e-19
2.70745e-19
1.65968e-19
1.01496e-19
6.19208e-20
3.7687e-20
2.28832e-20
1.38616e-20
8.37696e-21
5.05054e-21
3.03788e-21
1.823e-21
1.09142e-21
6.51905e-22
3.88482e-22
2.30968e-22
1.37003e-22
8.10797e-23
4.78736e-23
2.82024e-23
1.65763e-23
9.72071e-24
5.68754e-24
3.32022e-24
1.93389e-24
1.12387e-24
6.5167e-25
3.77022e-25
2.17639e-25
1.25354e-25
7.20406e-26
4.13099e-26
2.36359e-26
1.34938e-26
7.68671e-27
4.36915e-27
2.47801e-27
1.40238e-27
7.91921e-28
4.46229e-28
2.50896e-28
1.40765e-28
7.88065e-29
4.40248e-29
2.45417e-29
1.36516e-29
7.57774e-30
4.19734e-30
2.32001e-30
1.27964e-30
7.04322e-31
3.8685e-31
2.12034e-31
1.15974e-31
6.33007e-32
3.4479e-32
1.87414e-32
1.0166e-32
5.50304e-33
2.97277e-33
1.60262e-33
8.622e-34
4.62914e-34
2.48032e-34
1.32628e-34
7.07749e-35
3.76919e-35
2.00327e-35
1.06257e-35
5.6248e-36
2.97157e-36
1.56675e-36
8.24416e-37
4.32944e-37
2.26911e-37
1.18693e-37
6.19632e-38
3.22843e-38
1.67879e-38
8.71267e-39
4.51294e-39
2.33304e-39
1.20376e-39
6.19894e-40
)
;

boundaryField
{
    sides
    {
        type            zeroGradient;
    }
    empty
    {
        type            empty;
    }
}


// ************************************************************************* //
