/*--------------------------------*- C++ -*----------------------------------*\
| =========                 |                                                 |
| \\      /  F ield         | OpenFOAM: The Open Source CFD Toolbox           |
|  \\    /   O peration     | Version:  2312                                  |
|   \\  /    A nd           | Website:  www.openfoam.com                      |
|    \\/     M anipulation  |                                                 |
\*---------------------------------------------------------------------------*/
FoamFile
{
    version     2.0;
    format      ascii;
    arch        "LSB;label=32;scalar=64";
    class       volScalarField;
    location    "2.1";
    object      T;
}
// * * * * * * * * * * * * * * * * * * * * * * * * * * * * * * * * * * * * * //

dimensions      [0 0 0 1 0 0 0];

internalField   nonuniform List<scalar> 
1000
(
0
0
0
0
0
0
0
0
0
0
0
0
0
0
0
0
0
0
0
0
0
0
0
0
0
0
0
0
0
0
0
0
0
0
0
0
0
0
0
0
0
0
0
0
0
0
0
0
0
0
0
0
0
0
0
0
0
0
0
0
0
0
0
0
0
0
0
0
0
0
0
0
0
0
0
0
0
0
0
0
0
0
0
0
0
0
0
0
0
0
0
0
0
0
0
0
0
0
0
0
0
0
0
0
0
0
0
0
0
0
0
0
0
0
0
0
0
0
0
0
0
0
0
0
0
0
0
0
0
0
0
0
0
0
0
0
0
0
0
0
0
0
0
0
0
0
0
0
0
0
0
0
0
0
0
0
0
0
0
0
0
0
0
0
0
0
0
0
0
0
0
0
0
0
0
0
0
0
0
0
0
0
0
0
0
0
0
0
0
0
0
0
0
0
0
0
0
0
0
0
0
0
0
0
0
0
0
0
0
0
0
0
0
0
0
0
0
0
0
0
0
0
0
0
0
0
0
0
0
0
0
0
0
0
0
0
0
0
0
0
0
0
0
0
0
0
0
0
0
0
0
0
0
0
0
0
0
0
0
0
0
0
0
0
0
0
0
0
0
0
0
0
0
0
0
0
0
0
0
0
0
0
0
0
0
0
0
0
0
0
0
0
0
0
0
0
0
0
0
0
0
0
0
0
0
0
0
0
0
0
0
0
0
0
0
0
0
0
0
0
0
0
0
0
0
0
0
0
0
0
0
0
0
0
0
0
0
0
0
0
0
0
0
0
0
0
0
0
0
0
0
0
0
0
0
0
0
0
0
0
0
0
0
0
0
0
0
0
0
0
0
0
0
0
0
0
0
0
0
0
0
0
0
0
0
0
0
0
0
0
0
0
0
0
0
0
0
0
0
0
0
0
0
0
0
0
0
0
0
0
0
0
0
0
0
0
0
0
0
0
0
0
0
0
0
0
0
0
0
0
0
0
0
0
0
0
0
0
0
0
0
0
0
0
0
0
0
0
0
0
1.08027e-60
1.45444e-58
9.79615e-57
4.40101e-55
1.48367e-53
4.00352e-52
9.00727e-51
1.73791e-49
2.9356e-48
4.41005e-47
5.96571e-46
7.34036e-45
8.2835e-44
8.63334e-43
8.35967e-42
7.55904e-41
6.41131e-40
5.1207e-39
3.86473e-38
2.76478e-37
1.88e-36
1.21814e-35
7.53816e-35
4.4644e-34
2.53519e-33
1.38281e-32
7.25631e-32
3.66871e-31
1.78958e-30
8.43306e-30
3.84354e-29
1.69619e-28
7.25545e-28
3.01112e-27
1.21357e-26
4.75391e-26
1.81151e-25
6.72003e-25
2.42862e-24
8.55671e-24
2.94103e-23
9.86758e-23
3.23369e-22
1.03564e-21
3.24324e-21
9.93651e-21
2.97981e-20
8.75079e-20
2.51773e-19
7.1001e-19
1.96333e-18
5.32562e-18
1.41763e-17
3.70454e-17
9.50691e-17
2.39678e-16
5.93804e-16
1.44619e-15
3.46347e-15
8.15883e-15
1.89105e-14
4.31379e-14
9.68749e-14
2.14228e-13
4.66621e-13
1.00134e-12
2.11755e-12
4.41388e-12
9.0707e-12
1.83819e-11
3.67418e-11
7.24509e-11
1.4097e-10
2.70704e-10
5.13134e-10
9.60323e-10
1.77473e-09
3.23932e-09
5.84058e-09
1.04043e-08
1.83146e-08
3.18625e-08
5.47931e-08
9.31549e-08
1.56597e-07
2.6033e-07
4.28047e-07
6.96219e-07
1.12033e-06
1.78384e-06
2.81081e-06
4.38357e-06
6.76711e-06
1.03422e-05
1.56498e-05
2.34503e-05
3.48001e-05
5.11516e-05
7.44789e-05
0.000107437
0.000153557
0.000217487
0.000305273
0.000424702
0.000585691
0.000800734
0.0010854
0.00145887
0.00194454
0.00257061
0.00337069
0.00438437
0.00565782
0.00724415
0.00920378
0.0116046
0.0145219
0.0180381
0.022242
0.0272283
0.0330959
0.0399466
0.0478831
0.0570068
0.0674155
0.0792004
0.0924435
0.107215
0.123569
0.141544
0.161156
0.182402
0.205253
0.229657
0.255535
0.282787
0.311287
0.340888
0.371422
0.402707
0.434547
0.466736
0.499063
0.531316
0.563286
0.594771
0.62558
0.655534
0.684476
0.712262
0.738773
0.763912
0.787603
0.809794
0.830453
0.849571
0.867157
0.883237
0.897856
0.911066
0.922935
0.933538
0.942955
0.951271
0.958573
0.964949
0.970486
0.975266
0.979371
0.982877
0.985854
0.98837
0.990483
0.99225
0.993718
0.994932
0.995931
0.996748
0.997413
0.997952
0.998386
0.998734
0.999012
0.999232
0.999406
0.999542
0.999649
0.999732
0.999796
0.999845
0.999882
0.999909
0.999929
0.999942
0.999949
0.99995
0.999946
0.999935
0.999915
0.999885
0.999841
0.999779
0.999692
0.999573
0.999413
0.999198
0.998914
0.998541
0.998055
0.997429
0.996629
0.995616
0.994342
0.992756
0.990796
0.988395
0.985478
0.981962
0.977758
0.972772
0.966904
0.960053
0.952117
0.942993
0.932585
0.9208
0.907557
0.892785
0.876431
0.858456
0.838844
0.817598
0.794747
0.770343
0.744465
0.717213
0.688713
0.659112
0.628578
0.597293
0.565453
0.533264
0.500937
0.468684
0.436714
0.405229
0.37442
0.344466
0.315524
0.287738
0.261227
0.236088
0.212397
0.190206
0.169547
0.150429
0.132843
0.116763
0.102144
0.0889338
0.0770646
0.066462
0.0570452
0.0487292
0.0414269
0.0350508
0.0295144
0.024734
0.0206289
0.0171231
0.0141455
0.0116301
0.00951662
0.0077503
0.00628197
0.0050678
0.00406905
0.00325179
0.0025865
0.00204772
0.00161361
0.00126564
0.000988104
0.000767871
0.00059398
0.000457363
0.000350559
0.000267474
0.000203155
0.000153606
0.000115619
8.6636e-05
6.46284e-05
4.79968e-05
3.54873e-05
2.61223e-05
1.91442e-05
1.39687e-05
1.01479e-05
7.34023e-06
5.28639e-06
3.79083e-06
2.70671e-06
1.92438e-06
1.36235e-06
9.60385e-07
6.74163e-07
4.71257e-07
3.28043e-07
2.27401e-07
1.56982e-07
1.07922e-07
7.38892e-08
5.03816e-08
3.42129e-08
2.31389e-08
1.55861e-08
1.04564e-08
6.98685e-09
4.64994e-09
3.08238e-09
2.03518e-09
1.33847e-09
8.76815e-10
5.72149e-10
3.71895e-10
2.40795e-10
1.55309e-10
9.97883e-11
6.38704e-11
4.07254e-11
2.58692e-11
1.63704e-11
1.03205e-11
6.48215e-12
4.05617e-12
2.52872e-12
1.57065e-12
9.7198e-13
5.99299e-13
3.68167e-13
2.25355e-13
1.37441e-13
8.35217e-14
5.05735e-14
3.05137e-14
1.83451e-14
1.09902e-14
6.56081e-15
3.90286e-15
2.31359e-15
1.36671e-15
8.04558e-16
4.71994e-16
2.75943e-16
1.60773e-16
9.33519e-17
5.40201e-17
3.11541e-17
1.79065e-17
1.02576e-17
5.85632e-18
3.3324e-18
1.88994e-18
1.06832e-18
6.01899e-19
3.38003e-19
1.8919e-19
1.05551e-19
5.86974e-20
3.25365e-20
1.79774e-20
9.90126e-21
5.43586e-21
2.97484e-21
1.62287e-21
8.82542e-22
4.78433e-22
2.58551e-22
1.39289e-22
7.48065e-23
4.00513e-23
2.13774e-23
1.13752e-23
6.03443e-24
3.19145e-24
1.68276e-24
8.84587e-25
4.63608e-25
2.42246e-25
1.26201e-25
6.55506e-26
3.39469e-26
1.75282e-26
9.02394e-27
4.63212e-27
2.37078e-27
1.20987e-27
6.15635e-28
3.12358e-28
1.58026e-28
7.97181e-29
4.00999e-29
2.01136e-29
1.00601e-29
5.01748e-30
2.49542e-30
1.2376e-30
6.12071e-31
3.01863e-31
1.4846e-31
7.28126e-32
3.56126e-32
1.73702e-32
8.44922e-33
4.09865e-33
1.98282e-33
9.56633e-34
4.60292e-34
2.20878e-34
1.05707e-34
5.04536e-35
2.40172e-35
1.14025e-35
5.39915e-36
2.5498e-36
1.201e-36
5.6421e-37
2.64365e-37
1.23548e-37
5.75893e-38
2.67746e-38
1.24161e-38
5.7429e-39
2.64951e-39
1.21924e-39
5.59643e-40
2.56231e-40
1.17018e-40
5.33066e-41
2.42225e-41
1.09792e-41
4.96407e-42
2.23886e-42
1.00725e-42
4.52041e-43
2.02371e-43
9.0376e-44
4.0262e-44
1.78928e-44
7.93246e-45
3.5082e-45
1.54779e-45
6.8123e-46
2.99112e-46
1.31019e-46
5.72534e-47
2.49595e-47
1.08553e-47
4.70999e-48
2.03881e-48
8.8047e-49
3.79346e-49
1.63059e-49
6.99268e-50
2.99182e-50
1.2771e-50
5.43892e-51
2.31102e-51
9.79717e-52
4.14387e-52
1.74873e-52
7.36301e-53
3.09318e-53
1.29651e-53
5.42214e-54
2.26252e-54
9.41981e-55
3.91314e-55
1.62198e-55
6.70813e-56
2.76822e-56
1.13984e-56
4.68308e-57
1.91987e-57
7.85349e-58
3.2056e-58
1.30562e-58
5.30617e-59
2.15185e-59
8.70779e-60
3.5162e-60
1.41681e-60
5.69669e-61
2.28566e-61
9.15127e-62
3.65623e-62
1.45771e-62
5.79956e-63
2.30256e-63
9.12262e-64
3.60681e-64
1.42307e-64
5.60312e-65
2.20159e-65
8.63277e-66
3.37809e-66
1.31918e-66
5.14103e-67
1.99946e-67
7.76055e-68
3.00604e-68
1.16204e-68
4.48301e-69
1.72603e-69
6.63223e-70
2.54333e-70
9.73377e-71
3.7179e-71
1.41728e-71
5.39205e-72
2.04738e-72
7.75873e-73
2.93449e-73
1.10771e-73
4.17325e-74
1.5692e-74
5.88902e-75
2.20581e-75
8.24625e-76
3.07688e-76
1.14586e-76
4.25917e-77
1.58012e-77
5.85099e-78
2.16245e-78
7.97702e-79
2.93709e-79
1.07939e-79
3.95934e-80
1.44963e-80
5.2976e-81
1.93239e-81
7.03564e-82
2.55687e-82
9.27497e-83
3.35828e-83
1.21373e-83
4.3786e-84
1.57671e-84
)
;

boundaryField
{
    sides
    {
        type            zeroGradient;
    }
    empty
    {
        type            empty;
    }
}


// ************************************************************************* //
