/*--------------------------------*- C++ -*----------------------------------*\
| =========                 |                                                 |
| \\      /  F ield         | OpenFOAM: The Open Source CFD Toolbox           |
|  \\    /   O peration     | Version:  2312                                  |
|   \\  /    A nd           | Website:  www.openfoam.com                      |
|    \\/     M anipulation  |                                                 |
\*---------------------------------------------------------------------------*/
FoamFile
{
    version     2.0;
    format      ascii;
    arch        "LSB;label=32;scalar=64";
    class       volScalarField;
    location    "1.5";
    object      T;
}
// * * * * * * * * * * * * * * * * * * * * * * * * * * * * * * * * * * * * * //

dimensions      [0 0 0 1 0 0 0];

internalField   nonuniform List<scalar> 
1000
(
4.15552e-119
-1.55666e-118
5.70697e-118
-2.10356e-117
7.7372e-117
-2.84094e-116
1.04132e-115
-3.81018e-115
1.3917e-114
-5.07436e-114
1.84693e-113
-6.71048e-113
2.4338e-112
-8.8114e-112
3.18441e-111
-1.14878e-110
4.13682e-110
-1.48701e-109
5.33556e-109
-1.911e-108
6.83206e-108
-2.43811e-107
8.68485e-107
-3.088e-106
1.09596e-105
-3.88252e-105
1.37288e-104
-4.84557e-104
1.70708e-103
-6.00277e-103
2.10688e-102
-7.38099e-102
2.58091e-101
-9.00771e-101
3.13787e-100
-1.09102e-99
3.78621e-99
-1.31144e-98
4.53379e-98
-1.56438e-97
5.3875e-97
-1.8518e-96
6.35273e-96
-2.17512e-95
7.43295e-95
-2.53507e-94
8.62914e-94
-2.93151e-93
9.93939e-93
-3.36332e-92
1.13583e-91
-3.82823e-91
1.28769e-90
-4.32273e-90
1.44821e-89
-4.84203e-89
1.61564e-88
-5.38001e-88
1.78787e-87
-5.92929e-87
1.96236e-86
-6.48131e-86
2.13624e-85
-7.02652e-85
2.30637e-84
-7.5546e-84
2.46937e-83
-8.05475e-83
2.62182e-82
-8.51604e-82
2.76027e-81
-8.92779e-81
2.88144e-80
-9.27994e-80
2.98228e-79
-9.56349e-79
3.06017e-78
-9.77084e-78
3.11295e-77
-9.89612e-77
3.1391e-76
-9.93549e-76
3.13772e-75
-9.8873e-75
3.10867e-74
-9.7522e-74
3.05252e-73
-9.53316e-73
2.97054e-72
-9.23531e-72
2.86471e-71
-8.86581e-71
2.73755e-70
-8.4335e-70
2.5921e-69
-7.9486e-69
2.43175e-68
-7.42226e-68
2.26014e-67
-6.86617e-67
2.08098e-66
-6.29207e-66
1.89796e-65
-5.71141e-65
1.71459e-64
-5.13488e-64
1.5341e-63
-4.57217e-63
1.35936e-62
-4.03168e-62
1.19281e-61
-3.52037e-61
1.03641e-60
-3.04365e-60
8.91611e-60
-2.60537e-59
7.59401e-59
-2.20789e-58
6.40297e-58
-1.85217e-57
5.34406e-57
-1.53797e-56
4.41471e-56
-1.26396e-55
3.60942e-55
-1.02803e-54
2.92036e-54
-8.27416e-54
2.3381e-53
-6.58943e-53
1.85214e-52
-5.19203e-52
1.45155e-51
-4.04716e-51
1.12536e-50
-3.12066e-50
8.63004e-50
-2.38003e-49
6.54564e-49
-1.79521e-48
4.90982e-48
-1.33905e-47
3.64173e-47
-9.87616e-47
2.67075e-46
-7.20174e-46
1.9364e-45
-5.19159e-45
1.38786e-44
-3.69936e-44
9.83187e-44
-2.60536e-43
6.88362e-43
-1.81332e-42
4.76252e-42
-1.24708e-41
3.25569e-41
-8.47374e-41
2.19879e-40
-5.68804e-40
1.46691e-39
-3.7714e-39
9.66604e-39
-2.46966e-38
6.29014e-38
-1.59702e-37
4.04185e-37
-1.01968e-36
2.56419e-36
-6.42739e-36
1.60586e-35
-3.99911e-35
9.9264e-35
-2.45576e-34
6.05532e-34
-1.48812e-33
3.64484e-33
-8.89716e-33
2.16445e-32
-5.24758e-32
1.26788e-31
-3.05275e-31
7.32477e-31
-1.75136e-30
4.17279e-30
-9.90691e-30
2.34369e-29
-5.52463e-29
1.29759e-28
-3.03664e-28
7.08042e-28
-1.64485e-27
3.80701e-27
-8.77852e-27
2.01664e-26
-4.61522e-26
1.05222e-25
-2.38975e-25
5.40662e-25
-1.21846e-24
2.73526e-24
-6.11611e-24
1.36217e-23
-3.02168e-23
6.67607e-23
-1.46904e-22
3.21938e-22
-7.02626e-22
1.52713e-21
-3.30535e-21
7.1241e-21
-1.52898e-20
3.26752e-20
-6.95289e-20
1.47308e-19
-3.10734e-19
6.52583e-19
-1.36443e-18
2.84001e-18
-5.88472e-18
1.21381e-17
-2.49219e-17
5.09326e-17
-1.03605e-16
2.09755e-16
-4.22647e-16
8.47532e-16
-1.69133e-15
3.35873e-15
-6.63708e-15
1.305e-14
-2.55306e-14
4.96936e-14
-9.62298e-14
1.85382e-13
-3.55261e-13
6.7722e-13
-1.28407e-12
2.42158e-12
-4.54188e-12
8.47176e-12
-1.57139e-11
2.8983e-11
-5.31519e-11
9.69135e-11
-1.75675e-10
3.16565e-10
-5.67039e-10
1.00955e-09
-1.78638e-09
3.14134e-09
-5.48932e-09
9.53113e-09
-1.64421e-08
2.81783e-08
-4.79708e-08
8.11152e-08
-1.36222e-07
2.27177e-07
-3.7619e-07
6.18483e-07
-1.00942e-06
1.63527e-06
-2.6292e-06
4.19485e-06
-6.64057e-06
1.04286e-05
-1.62449e-05
2.50959e-05
-3.84424e-05
5.838e-05
-8.78779e-05
0.000131091
-0.000193752
0.000283666
-0.000411292
0.000590422
-0.000838932
0.00117954
-0.00164054
0.00225629
-0.00306744
0.00412055
-0.00546686
0.00715996
-0.00925203
0.0117883
-0.0147999
0.0182946
-0.0222462
0.0265835
-0.0311793
0.0358423
-0.0403129
0.0442664
-0.0473254
0.0490844
-0.0491461
0.04717
-0.0429292
0.0363701
-0.0276656
0.0172514
-0.00583303
-0.00564621
0.0160836
-0.0243414
0.0294071
-0.0305705
0.0275872
-0.0207938
0.0111392
-0.000105424
-0.0104893
0.0187902
-0.0232622
0.0230333
-0.0181427
0.00961752
0.000673375
-0.0103858
0.0172304
-0.0195483
0.0167835
-0.0097029
0.000266779
0.0088573
-0.0150351
0.0164603
-0.0127546
0.00515599
0.00381336
-0.0111397
0.0143363
-0.0123431
0.00596323
0.00237019
-0.00946527
0.0125901
-0.010575
0.0043332
0.00346209
-0.00947032
0.0111191
-0.00776389
0.00102327
0.00592167
-0.00979565
0.00880206
-0.00353029
-0.00329746
0.00817616
-0.0086218
0.00449677
0.0018836
-0.00698373
0.00799787
-0.00444506
-0.0015285
0.0063762
-0.00724412
0.00370035
0.00197877
-0.00620441
0.00633563
-0.00238271
-0.00298184
0.00617588
-0.00510927
0.000617554
0.00409968
-0.00571015
0.00311618
0.00174793
-0.00532392
0.00506817
-0.00137451
-0.00270621
0.00379872
-0.000822554
-0.00417064
0.0076648
-0.00756591
0.00496351
-0.00326734
0.00537589
-0.0112409
0.0179387
-0.0222439
0.0234789
-0.0240876
0.0273459
-0.0342344
0.0423481
-0.0479118
0.0490658
-0.0473113
0.0456968
-0.0454862
0.0446253
-0.0396351
0.0291368
-0.0154769
0.00275427
0.00676322
-0.0141171
0.0214898
-0.0287799
0.0327856
-0.0301155
0.0208077
-0.00869691
-0.00194369
0.00980245
-0.0162423
0.0218915
-0.024429
0.0205607
-0.0101122
-0.00265289
0.0123386
-0.0167319
0.0172872
-0.0156668
0.0111285
-0.00233287
-0.00885588
0.0170504
-0.017772
0.0116238
-0.00316609
-0.0039311
0.00926493
-0.013114
0.0134708
-0.00779847
-0.00245787
0.0113112
-0.0134817
0.0092255
-0.00277718
-0.00290324
0.00767377
-0.010829
0.00939851
-0.00203091
-0.00709829
0.0112778
-0.00824047
0.00184979
0.00337764
-0.00654659
0.00797037
-0.00588703
-0.000788112
0.0080184
-0.00939083
0.00381621
0.00307952
-0.00615072
0.00564865
-0.00355676
-0.000425576
0.00575144
-0.00780238
0.00309726
0.00431703
-0.00706141
0.00385806
0.000464897
-0.00303755
0.00465507
-0.00428763
-0.000347859
0.00603354
-0.00589652
-0.000199832
0.00479052
-0.00396375
0.00124073
0.000829355
-0.00343193
0.00463784
-0.000562311
-0.00522267
0.00478705
0.000937489
-0.00382619
0.00231275
-0.000850127
-0.000741909
0.00384311
-0.00340341
-0.00251776
0.00535574
-0.000733252
-0.00321844
0.0019263
-0.000724859
0.000237381
0.00302151
-0.00358116
-0.00242078
0.00499335
0.000448934
-0.00321457
0.000577904
-0.000505366
0.000249691
0.00379126
-0.00188645
-0.00491966
0.0024884
0.00361765
-0.00105129
-0.000738939
-0.00172634
-0.00244498
0.00385776
0.00465056
-0.00346038
-0.00468086
0.000326936
0.00178925
0.00336196
0.00331327
-0.00415368
-0.00752898
0.000385139
0.00642032
0.00476273
0.00151536
-0.004341
-0.0101186
-0.0045375
0.00813031
0.0121513
0.00635802
-0.00271716
-0.013706
-0.0185248
-0.00653848
0.0143717
0.0270491
0.0258146
0.0100047
-0.0208447
-0.0529762
-0.0630137
-0.0394475
0.0186454
0.112947
0.237409
0.373232
0.505175
0.628095
0.734929
0.817353
0.877678
0.923484
0.955375
0.972995
0.98347
0.992449
0.99736
0.99728
0.997711
1.00048
1.00105
0.998884
0.998852
1.00113
1.00104
0.998793
0.999007
1.00124
1.00098
0.998755
0.998985
1.00122
1.00108
0.998835
0.998808
1.00107
1.00133
0.999089
0.998515
1.00069
1.00164
0.999617
0.998246
0.99999
1.0018
1.00048
0.99829
0.998993
1.00145
1.00152
0.999041
0.998067
1.00024
1.00211
1.00065
0.998085
0.998434
1.00125
1.00227
0.999878
0.997535
0.998737
1.00187
1.00248
0.999561
0.997069
0.998503
1.00211
1.00312
1.00003
0.996637
0.997329
1.00151
1.00418
1.00193
0.997094
0.995212
0.998753
1.00415
1.00551
1.00093
0.99471
0.993247
0.998602
1.00622
1.0089
1.00341
0.993705
0.987936
0.991796
1.00361
1.01506
1.01697
1.00598
0.987425
0.972661
0.972551
0.991003
1.02202
1.05149
1.06245
1.04113
0.981274
0.885424
0.763242
0.628158
0.49373
0.37087
0.266464
0.183276
0.120771
0.076291
0.0462202
0.026862
0.0149756
0.00800639
0.00410222
0.00201218
0.000943363
0.000421726
0.000179156
7.19575e-05
2.71136e-05
9.46338e-06
2.99021e-06
8.14648e-07
1.65946e-07
7.28539e-09
-1.59916e-08
-1.13027e-08
-5.3116e-09
-2.01163e-09
-6.31389e-10
-1.55993e-10
-2.27753e-11
3.90045e-12
4.8553e-12
2.4249e-12
8.82263e-13
2.47211e-13
4.71833e-14
7.10863e-16
-4.46713e-15
-2.5281e-15
-9.25923e-16
-2.47193e-16
-4.0754e-17
2.51213e-18
5.22779e-18
2.46632e-18
7.72672e-19
1.62969e-19
1.08909e-20
-9.40705e-21
-5.62688e-21
-1.91523e-21
-4.32431e-22
-4.05716e-23
1.80806e-23
1.20249e-23
4.10226e-24
8.96042e-25
7.14504e-26
-4.12691e-26
-2.45663e-26
-7.71322e-27
-1.47172e-27
-3.82082e-29
9.93132e-29
4.63268e-29
1.23636e-29
1.75327e-30
-1.94354e-31
-2.14873e-31
-7.57948e-32
-1.56704e-32
-9.06586e-34
7.73265e-34
3.81933e-34
9.93895e-35
1.27915e-35
-1.92246e-36
-1.66465e-36
-5.23658e-37
-9.02571e-38
8.04328e-40
6.47178e-39
2.4373e-39
4.97213e-40
2.62988e-41
-2.30214e-41
-1.03738e-41
-2.36645e-42
-2.04512e-43
7.70863e-44
4.13283e-44
1.01533e-44
1.06774e-45
-2.52126e-46
-1.56689e-46
-4.01487e-47
-4.57476e-48
8.41299e-49
5.71545e-49
1.48064e-49
1.6994e-50
-2.96026e-51
-2.01634e-51
-5.11968e-52
-5.55469e-53
1.09925e-53
6.87861e-54
1.66013e-54
1.58214e-55
-4.17873e-56
-2.25851e-56
-5.0263e-57
-3.75354e-58
1.5643e-58
7.08097e-59
1.40768e-59
6.31619e-61
-5.5948e-61
-2.09871e-61
-3.58707e-62
-4.93288e-65
1.87529e-63
5.81091e-64
8.06698e-65
-5.46598e-66
-5.81944e-66
-1.48112e-66
-1.49549e-67
3.024e-68
1.6564e-68
3.40411e-69
1.80481e-70
-1.15739e-70
-4.28174e-71
-6.80869e-72
1.13329e-73
3.63428e-73
9.91181e-74
1.09331e-74
-1.62027e-75
-9.80249e-76
-2.00526e-76
-1.03084e-77
6.50352e-78
2.29597e-78
3.36617e-79
-1.27688e-80
-1.89747e-80
-4.62476e-81
-4.0148e-82
9.99344e-83
4.51637e-83
7.71565e-84
6.09486e-86
-3.26006e-85
-8.96333e-86
-9.48186e-87
1.41172e-87
7.84722e-88
1.44792e-88
4.01377e-90
-5.16923e-90
-1.51224e-90
-1.70906e-91
2.00214e-92
1.23335e-92
2.31021e-93
7.28567e-95
-7.75439e-95
-2.25934e-95
-2.48956e-96
3.02462e-97
1.77132e-97
3.17686e-98
7.06728e-100
-1.10509e-99
-3.00195e-100
-2.94579e-101
4.73926e-102
2.31914e-102
3.75526e-103
-2.77158e-106
-1.47386e-104
-3.52459e-105
-2.71518e-106
7.12847e-107
2.73482e-107
3.74178e-108
-1.59724e-109
-1.79438e-109
-3.59678e-110
-1.64061e-111
9.65919e-112
2.84982e-112
2.99145e-113
-3.66053e-114
-1.9418e-114
-3.09496e-115
4.68394e-118
1.13729e-116
2.55668e-117
1.65972e-118
-5.46447e-119
-1.81904e-119
-2.11292e-120
1.76126e-121
1.13883e-121
1.89791e-122
1.84416e-124
-6.23501e-124
-1.43022e-124
-9.58758e-126
2.85891e-126
9.50697e-127
1.07553e-127
-9.3066e-129
-5.66359e-129
-8.98067e-130
-4.58818e-133
3.01408e-131
6.41573e-132
3.50959e-133
-1.39528e-133
-4.10003e-134
-3.99031e-135
5.15292e-136
2.38342e-136
3.27118e-137
-9.80021e-139
-1.26379e-138
-2.2874e-139
-6.29419e-141
6.05076e-141
1.43715e-141
9.99258e-143
-2.53284e-143
-8.28927e-144
-8.75343e-145
8.40958e-146
4.42742e-146
6.24031e-147
-1.30085e-148
-2.1911e-148
-3.94757e-149
-1.07644e-150
9.97025e-151
2.291e-151
1.46305e-152
-4.08284e-153
-1.239e-153
-1.1823e-154
1.42299e-155
6.2905e-156
7.90338e-157
-3.46736e-158
-3.00529e-158
-4.73212e-159
-2.01532e-161
1.34824e-160
2.61999e-161
1.03956e-162
-5.636e-163
-1.36269e-163
-9.37205e-165
2.15677e-165
6.71539e-166
6.36972e-167
-7.249e-168
-3.15025e-168
-3.78126e-169
1.892e-170
1.40959e-170
2.05894e-171
-1.59789e-173
-6.0148e-173
-1.05174e-173
-2.50551e-175
2.441e-175
5.10196e-176
2.52684e-177
-9.36384e-178
-2.36753e-178
-1.70214e-179
3.35387e-180
1.0558e-180
9.76374e-182
-1.09355e-182
-4.53798e-183
-5.09906e-184
3.05274e-185
1.88321e-185
2.49443e-186
-5.86334e-188
-7.55162e-188
-1.16018e-188
-4.80677e-191
2.92589e-190
5.17608e-191
1.37345e-192
-1.09422e-192
-2.22784e-193
-1.01543e-194
3.9409e-195
9.28732e-196
5.79846e-197
-1.36133e-197
-3.76056e-198
-2.92796e-199
4.47858e-200
1.48214e-200
1.36936e-201
-1.38553e-202
-5.69517e-203
-6.06136e-204
3.93156e-205
2.13621e-205
2.57002e-206
-9.6519e-208
-7.82941e-208
-1.05158e-208
1.67887e-210
2.80601e-210
4.17294e-211
7.38249e-214
-9.83957e-213
-1.61165e-213
-2.70398e-215
3.37733e-215
6.07395e-216
1.80922e-217
-1.13502e-217
-2.23833e-218
-9.24055e-220
3.73532e-220
8.07862e-221
4.16905e-222
-1.20377e-222
-2.85951e-223
-1.74417e-224
3.79829e-225
9.93753e-226
6.91917e-227
-1.17305e-227
-3.39403e-228
-2.63583e-229
3.59774e-230
9.05622e-231
)
;

boundaryField
{
    sides
    {
        type            zeroGradient;
    }
    empty
    {
        type            empty;
    }
}


// ************************************************************************* //
