/*--------------------------------*- C++ -*----------------------------------*\
| =========                 |                                                 |
| \\      /  F ield         | OpenFOAM: The Open Source CFD Toolbox           |
|  \\    /   O peration     | Version:  2312                                  |
|   \\  /    A nd           | Website:  www.openfoam.com                      |
|    \\/     M anipulation  |                                                 |
\*---------------------------------------------------------------------------*/
FoamFile
{
    version     2.0;
    format      ascii;
    arch        "LSB;label=32;scalar=64";
    class       volScalarField;
    location    "3.1";
    object      T;
}
// * * * * * * * * * * * * * * * * * * * * * * * * * * * * * * * * * * * * * //

dimensions      [0 0 0 1 0 0 0];

internalField   nonuniform List<scalar> 
1000
(
3.37704e-26
-3.85571e-26
8.26005e-26
-1.56187e-25
3.00549e-25
-5.7486e-25
1.09738e-24
-2.08923e-24
3.96733e-24
-7.5141e-24
1.41945e-23
-2.67435e-23
5.02536e-23
-9.41806e-23
1.76033e-22
-3.2814e-22
6.10028e-22
-1.13099e-21
2.09114e-21
-3.85578e-21
7.08992e-21
-1.30006e-20
2.37723e-20
-4.3347e-20
7.88167e-20
-1.42903e-19
2.58359e-19
-4.65754e-19
8.37203e-19
-1.50052e-18
2.6815e-18
-4.77788e-18
8.48798e-18
-1.50341e-17
2.65488e-17
-4.67412e-17
8.20416e-17
-1.43562e-16
2.5044e-16
-4.35534e-16
7.55065e-16
-1.30491e-15
2.24803e-15
-3.86047e-15
6.6082e-15
-1.12752e-14
1.91756e-14
-3.25051e-14
5.49186e-14
-9.24789e-14
1.55207e-13
-2.59605e-13
4.32749e-13
-7.18906e-13
1.19016e-12
-1.9635e-12
3.22797e-12
-5.288e-12
8.63187e-12
-1.40397e-11
2.27527e-11
-3.67386e-11
5.9103e-11
-9.47285e-11
1.51259e-10
-2.40613e-10
3.81291e-10
-6.01893e-10
9.46436e-10
-1.48237e-09
2.3126e-09
-3.59339e-09
5.56099e-09
-8.57087e-09
1.31554e-08
-2.01082e-08
3.06064e-08
-4.63874e-08
7.00033e-08
-1.05183e-07
1.57347e-07
-2.34336e-07
3.47425e-07
-5.12746e-07
7.53248e-07
-1.1014e-06
1.60285e-06
-2.32145e-06
3.34592e-06
-4.79879e-06
6.84824e-06
-9.72359e-06
1.37354e-05
-1.93016e-05
2.69801e-05
-3.7511e-05
5.18679e-05
-7.13226e-05
9.75217e-05
-0.00013258
0.00017919
-0.000240746
0.000321488
-0.000426658
0.000562664
-0.000737246
0.000959643
-0.00124072
0.00159308
-0.00203107
0.00257074
-0.00322961
0.00402634
-0.00498013
0.00610991
-0.00743321
0.00896478
-0.0107148
0.0126871
-0.0148765
0.0172668
-0.0198283
0.0225155
-0.0252655
0.0279969
-0.0306098
0.0329873
-0.0349984
0.0365031
-0.0373594
0.0374323
-0.0366044
0.0347879
-0.0319371
0.0280598
-0.0232276
0.0175821
-0.0113367
0.00477243
0.00177389
-0.00792802
0.0133043
-0.0175372
0.0203162
-0.0214211
0.0207533
-0.0183597
0.014443
-0.00935804
0.00358905
0.00229042
-0.0076731
0.0119843
-0.0147515
0.0156685
-0.0146442
0.0118273
-0.00760081
0.0025425
0.00264565
-0.00723214
0.0105624
-0.0121612
0.0118136
-0.00960912
0.00593819
-0.00143698
-0.00311372
0.00692108
-0.00932215
0.00990902
-0.00861176
0.00571976
-0.00183305
-0.0022513
0.005698
-0.00780681
0.00816356
-0.00673431
0.00387838
-0.000272872
-0.00323848
0.00584022
-0.0069391
0.00630954
-0.00415227
0.00104745
0.00219024
-0.00472082
0.00589958
-0.00545018
0.00354114
-0.000740832
-0.00214032
0.00427946
-0.00507829
0.00433794
-0.00231768
-0.000343909
0.00282497
-0.00437601
0.004556
-0.0033732
0.00128249
0.00096309
-0.00256075
0.00292484
-0.00188152
-0.000277553
0.00290409
-0.00522929
0.00664485
-0.00692786
0.00632566
-0.00546684
0.00512844
-0.00594533
0.00817185
-0.0115887
0.0155926
-0.019435
0.022515
-0.0246068
0.0259279
-0.0270163
0.0284679
-0.0306419
0.0334632
-0.0364081
0.0386849
-0.0395322
0.0385086
-0.0356464
0.0314034
-0.0264385
0.0213173
-0.0162904
0.0112486
-0.00587899
-5.66734e-05
0.00646166
-0.0127985
0.0182021
-0.0217698
0.0228965
-0.0214982
0.018022
-0.0132432
0.00795982
-0.00273824
-0.00216406
0.0066783
-0.0106958
0.0138848
-0.015683
0.0154951
-0.0130036
0.0084253
-0.00256084
-0.00341048
0.00830553
-0.0113061
0.0121521
-0.0110883
0.00862985
-0.00530427
0.00151827
0.00239632
-0.00603513
0.00882381
-0.0100936
0.00933515
-0.00650121
0.00217106
0.00255608
-0.00642178
0.00845997
-0.00831943
0.00630983
-0.00318022
-0.000218906
0.00319965
-0.0053189
0.00631277
-0.0060156
0.00438246
-0.00162038
-0.00169104
0.00464487
-0.00628136
0.00599252
-0.00383881
0.000578152
0.00263738
-0.00474687
0.00519274
-0.00406006
0.00191716
0.000496829
-0.00253899
0.00377333
-0.00395971
0.00303807
-0.00118138
-0.00113077
0.00314944
-0.00409126
0.00350455
-0.0015578
-0.000962212
0.00299346
-0.00371093
0.00291481
-0.00107623
-0.000958595
0.00239894
-0.00282093
0.00223218
-0.000946116
-0.000584536
0.00187771
-0.00249677
0.00216482
-0.000924476
-0.000769631
0.00216856
-0.00257684
0.00175482
-0.000103715
-0.00152773
0.00231953
-0.00193774
0.000681644
0.000747974
-0.00167056
0.00175398
-0.00108575
3.09171e-05
0.000965566
-0.00152121
0.00140745
-0.000636538
-0.000479566
0.00139835
-0.00160032
0.000919125
0.000290331
-0.00132242
0.00156077
-0.00088648
-0.000249562
0.00114467
-0.00130928
0.000741287
0.000150119
-0.000854093
0.00104828
-0.000705477
3.48007e-05
0.000635153
-0.000973885
0.000780965
-0.0001198
-0.000648694
0.00103722
-0.000758042
-3.07946e-05
0.000794328
-0.000999956
0.000519951
0.000276799
-0.00082092
0.000772837
-0.000236586
-0.000379134
0.000685853
-0.00055071
0.00011078
0.000361008
-0.000604388
0.000479723
-4.23976e-05
-0.000447286
0.000648785
-0.000383456
-0.000183321
0.00062305
-0.000579731
8.36469e-05
0.000458819
-0.000612435
0.000282989
0.000227789
-0.000510114
0.000386725
-7.9843e-06
-0.000325463
0.000401943
-0.000206886
-0.000115004
0.000355409
-0.000347531
7.44997e-05
0.000277949
-0.00042327
0.000213024
0.000193206
-0.000436437
0.000289328
0.000112689
-0.000395128
0.000309443
3.70231e-05
-0.000312712
0.000292171
-3.82252e-05
-0.000208174
0.000261838
-0.000115113
-0.000104691
0.000239325
-0.000188
-2.46617e-05
0.000233974
-0.000243635
1.80186e-05
0.000240102
-0.000267644
2.47122e-05
0.000241161
-0.000254564
1.2653e-05
0.000221045
-0.000215026
6.32269e-06
0.000176938
-0.000173452
2.23019e-05
0.000124808
-0.00015466
5.67604e-05
9.11245e-05
-0.000166506
8.62572e-05
9.37114e-05
-0.000191959
8.49485e-05
0.000125352
-0.000200445
4.73911e-05
0.000156045
-0.000173408
-3.00838e-06
0.000156928
-0.000123184
-3.20349e-05
0.000127594
-8.4254e-05
-2.72178e-05
9.88689e-05
-7.94058e-05
-1.29931e-05
0.000101924
-9.27517e-05
-2.68424e-05
0.000131395
-8.31198e-05
-7.55249e-05
0.000145833
-3.09484e-05
-0.000121313
0.000113636
3.36858e-05
-0.000122925
5.42138e-05
6.34251e-05
-8.77386e-05
1.70426e-05
5.41322e-05
-6.41613e-05
1.58906e-05
5.15728e-05
-7.34969e-05
7.55402e-06
8.35088e-05
-7.4273e-05
-4.26845e-05
0.000109993
-2.32799e-05
-9.78196e-05
7.8138e-05
4.83599e-05
-9.58562e-05
9.97192e-06
7.23768e-05
-4.80033e-05
-2.42162e-05
5.01413e-05
-2.27061e-05
-1.95763e-05
4.66257e-05
-2.62034e-05
-3.9073e-05
6.5493e-05
6.41042e-06
-8.23843e-05
3.52797e-05
7.24203e-05
-6.83551e-05
-4.24852e-05
8.0816e-05
6.23676e-06
-6.99064e-05
2.2149e-05
4.15398e-05
-3.31868e-05
-6.70393e-06
2.4588e-05
-2.31751e-05
-8.02535e-07
4.00659e-05
-2.95564e-05
-4.12661e-05
5.70639e-05
2.92607e-05
-7.4366e-05
-1.00404e-05
7.78315e-05
-9.24835e-06
-6.77909e-05
2.24836e-05
4.76526e-05
-2.60182e-05
-2.24269e-05
1.91959e-05
-2.79004e-06
-4.03398e-06
2.3967e-05
-1.56421e-05
-3.87258e-05
3.52805e-05
4.63698e-05
-5.06172e-05
-4.7497e-05
5.8447e-05
4.34101e-05
-5.70815e-05
-3.55313e-05
4.65094e-05
2.49877e-05
-2.83137e-05
-1.246e-05
5.40493e-06
-1.68982e-06
1.83907e-05
1.70709e-05
-3.88769e-05
-3.28181e-05
5.2163e-05
4.72204e-05
-5.54428e-05
-5.76152e-05
4.7788e-05
6.07138e-05
-3.07789e-05
-5.34363e-05
8.70809e-06
3.41684e-05
1.19362e-05
-4.12506e-06
-2.39048e-05
-3.17203e-05
2.14772e-05
6.48097e-05
-3.1126e-06
-8.48169e-05
-2.65106e-05
8.31521e-05
5.63408e-05
-5.73409e-05
-7.17494e-05
1.44779e-05
6.03697e-05
2.86242e-05
-1.93641e-05
-5.04638e-05
-3.93496e-05
3.48425e-05
9.01985e-05
1.77777e-05
-0.000104054
-8.42991e-05
6.53251e-05
0.000125419
1.23507e-05
-0.000106463
-8.42942e-05
2.44701e-05
9.58185e-05
7.68618e-05
-2.12336e-05
-0.000123662
-0.000103101
6.25009e-05
0.000185093
8.31335e-05
-0.000138608
-0.000202636
-3.02212e-05
0.000171264
0.00018923
2.48577e-05
-0.000167108
-0.000223746
-6.94578e-05
0.000196139
0.000311876
0.000104119
-0.000257888
-0.000392097
-0.000132415
0.000276659
0.000449211
0.000231552
-0.000205338
-0.000525652
-0.000447368
4.85543e-05
0.000614729
0.000740909
0.000217716
-0.000591232
-0.00102073
-0.000675973
0.000250399
0.00113689
0.00134223
0.000593297
-0.000781724
-0.00192259
-0.00192578
-0.000525191
0.00158443
0.00311269
0.00296396
0.0008923
-0.00230524
-0.00505496
-0.00564399
-0.00308886
0.00213471
0.00799972
0.0116548
0.0106113
0.00381797
-0.00770877
-0.0207641
-0.0303738
-0.0307767
-0.0167483
0.0152224
0.0663114
0.135321
0.218999
0.312584
0.410566
0.507585
0.59916
0.682029
0.754154
0.814626
0.863571
0.901959
0.93124
0.952959
0.968566
0.979417
0.986781
0.991726
0.995001
0.997064
0.99826
0.998936
0.999381
0.999718
0.999915
0.999945
0.999894
0.9999
0.999997
1.00008
1.00006
0.999951
0.999897
0.999969
1.00009
1.0001
0.999995
0.999883
0.999904
1.00004
1.00014
1.00008
0.99992
0.999837
0.999935
1.00012
1.00018
1.00005
0.999848
0.99979
0.999955
1.00019
1.00025
1.00005
0.999781
0.999704
0.99992
1.00024
1.00037
1.00014
0.999751
0.999543
0.99974
1.00021
1.00056
1.00045
0.999922
0.999379
0.999288
0.999795
1.00056
1.001
1.0007
0.999773
0.998845
0.998629
0.999418
1.00081
1.00192
1.00189
1.00052
0.998447
0.996904
0.997009
0.999082
1.00232
1.00509
1.00564
1.00305
0.997861
0.992036
0.988364
0.989359
0.996151
1.00773
1.0208
1.03037
1.03074
1.01673
0.984813
0.933722
0.864658
0.780956
0.687416
0.58948
0.492438
0.400804
0.317927
0.245859
0.185427
0.136445
0.0979944
0.0687171
0.0470644
0.0314931
0.0205944
0.0131641
0.00822665
0.00502699
0.00300391
0.00175542
0.0010032
0.000560644
0.000306353
0.000163649
8.5437e-05
4.35779e-05
2.17058e-05
1.05517e-05
5.00244e-06
2.31076e-06
1.03879e-06
4.53784e-07
1.9225e-07
7.87869e-08
3.11228e-08
1.17915e-08
4.25288e-09
1.44292e-09
4.5086e-10
1.24134e-10
2.66047e-11
1.92747e-12
-2.23633e-12
-1.81595e-12
-9.59186e-13
-4.19593e-13
-1.60828e-13
-5.45335e-14
-1.59994e-14
-3.73281e-15
-4.53308e-16
1.68981e-16
1.6657e-16
8.71903e-17
3.57982e-17
1.23285e-17
3.52687e-18
7.54148e-19
5.48851e-20
-5.45757e-20
-4.02281e-20
-1.84343e-20
-6.64406e-21
-1.93116e-21
-4.12302e-22
-2.97662e-23
2.84481e-23
2.02112e-23
8.78689e-24
2.93723e-24
7.55107e-25
1.19635e-25
-1.23479e-26
-1.99046e-26
-1.00492e-26
-3.60026e-27
-9.76643e-28
-1.72384e-28
5.12089e-30
2.06443e-29
1.08894e-29
3.88379e-30
1.02097e-30
1.64263e-31
-1.33715e-32
-2.35815e-32
-1.13224e-32
-3.7186e-33
-8.65236e-34
-9.48629e-35
3.39682e-35
2.69245e-35
1.07698e-35
3.01678e-36
5.35426e-37
-9.56549e-39
-5.51344e-38
-2.71674e-38
-8.64392e-39
-1.8497e-39
-1.34257e-40
1.02022e-40
6.29795e-41
2.19664e-41
5.16287e-42
5.67039e-43
-1.83089e-43
-1.39451e-43
-5.14381e-44
-1.25777e-44
-1.54816e-45
3.53457e-46
3.02564e-46
1.13162e-46
2.75401e-47
3.30368e-48
-7.91514e-49
-6.49107e-49
-2.3526e-49
-5.45774e-50
-5.55318e-51
1.98099e-51
1.36601e-51
4.59814e-52
9.69112e-53
6.33422e-54
-5.01661e-54
-2.7646e-54
-8.32619e-55
-1.49372e-55
1.52653e-58
1.19389e-56
5.24802e-57
1.36283e-57
1.84216e-58
-2.62185e-59
-2.57157e-59
-9.09183e-60
-1.93418e-60
-1.31958e-61
9.15537e-62
4.90928e-62
1.39081e-62
2.17685e-63
-1.28819e-64
-2.17396e-64
-8.14522e-65
-1.78319e-65
-1.38333e-66
7.42563e-67
4.08522e-67
1.13848e-67
1.69232e-68
-1.35064e-69
-1.77551e-69
-6.23969e-70
-1.2513e-70
-5.85254e-72
6.56562e-72
3.04804e-72
7.53577e-73
8.5333e-74
-1.9037e-74
-1.35041e-74
-4.00029e-75
-6.35215e-76
2.77996e-77
5.46538e-77
1.93781e-77
3.78353e-78
1.42986e-79
-2.01915e-79
-8.73489e-80
-1.98732e-80
-1.72516e-81
6.7378e-82
3.71159e-82
9.57736e-83
1.15659e-83
-1.97166e-84
-1.50144e-84
-4.32572e-85
-6.32534e-86
4.64964e-87
5.83141e-87
1.85575e-87
3.08251e-88
-5.93243e-90
-2.19185e-89
-7.63303e-90
-1.38746e-90
-2.021e-92
8.03646e-92
3.03115e-92
5.87578e-93
2.14233e-94
-2.89737e-94
-1.16828e-94
-2.36658e-95
-1.19123e-96
1.03503e-96
4.38756e-97
9.12575e-98
5.30705e-99
-3.68752e-99
-1.60997e-99
-3.38266e-100
-2.06132e-101
1.31587e-101
5.78117e-102
1.20786e-102
7.1475e-104
-4.70898e-104
-2.03248e-104
-4.15716e-105
-2.20288e-106
1.68667e-106
6.99224e-107
1.37796e-107
5.81084e-109
-6.01948e-109
-2.35047e-109
-4.38852e-110
-1.1446e-111
2.12771e-111
7.70287e-112
1.33729e-112
4.58959e-115
-7.40128e-114
-2.45361e-114
-3.87275e-115
1.09543e-116
2.51821e-116
7.56795e-117
1.05405e-117
-7.77059e-119
-8.50799e-119
-1.65964e-119
)
;

boundaryField
{
    sides
    {
        type            zeroGradient;
    }
    empty
    {
        type            empty;
    }
}


// ************************************************************************* //
