/*--------------------------------*- C++ -*----------------------------------*\
| =========                 |                                                 |
| \\      /  F ield         | OpenFOAM: The Open Source CFD Toolbox           |
|  \\    /   O peration     | Version:  2312                                  |
|   \\  /    A nd           | Website:  www.openfoam.com                      |
|    \\/     M anipulation  |                                                 |
\*---------------------------------------------------------------------------*/
FoamFile
{
    version     2.0;
    format      ascii;
    arch        "LSB;label=32;scalar=64";
    class       volScalarField;
    location    "5";
    object      T;
}
// * * * * * * * * * * * * * * * * * * * * * * * * * * * * * * * * * * * * * //

dimensions      [0 0 0 1 0 0 0];

internalField   nonuniform List<scalar> 
1000
(
0
0
0
0
0
0
0
0
0
0
0
0
0
0
0
0
0
0
0
0
0
0
0
0
0
0
0
0
0
0
0
0
0
0
0
0
0
0
0
0
0
0
0
0
0
0
0
0
0
0
0
0
0
0
0
0
0
0
0
0
0
0
0
0
0
0
0
0
0
0
0
0
0
0
0
0
0
0
0
0
0
0
0
0
0
0
0
0
0
0
0
0
0
0
0
0
0
0
0
0
0
0
0
0
0
0
0
0
0
0
0
0
0
0
0
0
0
0
0
0
0
0
0
0
0
0
0
0
0
0
0
0
0
0
0
0
0
0
0
0
0
0
0
0
0
0
0
0
0
0
0
0
0
0
0
0
0
0
0
0
0
0
0
0
0
0
0
0
0
0
0
0
0
0
0
0
0
0
0
0
0
0
0
0
0
0
0
0
0
0
0
0
0
0
0
0
0
0
0
0
0
0
0
0
0
0
0
0
0
0
0
0
0
0
0
0
0
0
0
0
0
0
0
0
0
0
0
0
0
0
0
0
0
0
0
0
0
0
0
0
0
0
0
0
0
0
0
0
0
0
0
0
0
0
0
0
0
0
0
0
0
0
0
0
0
0
0
0
0
0
0
0
0
0
0
0
0
0
0
0
0
0
0
0
0
0
0
0
0
0
0
0
0
0
0
0
0
0
0
0
0
0
0
0
0
0
0
0
0
0
0
0
0
0
0
0
0
0
0
0
0
0
0
0
0
0
0
0
0
0
0
0
0
0
0
0
0
0
0
0
0
0
0
0
0
0
0
0
0
0
0
0
0
0
0
0
0
0
0
0
0
0
0
0
0
0
0
0
0
0
0
0
0
0
0
0
0
0
0
0
0
0
0
0
0
0
0
0
0
0
0
0
0
0
0
0
0
0
0
0
0
0
0
0
0
0
0
0
0
0
0
0
0
0
0
0
0
0
0
0
0
0
0
0
0
0
0
0
0
0
0
0
0
0
0
0
0
0
0
0
0
0
0
0
0
0
0
0
0
0
1.66993e-143
5.33011e-141
8.50814e-139
9.05592e-137
7.23074e-135
4.61969e-133
2.4601e-131
1.12315e-129
4.48765e-128
1.59419e-126
5.09791e-125
1.48233e-123
3.95182e-122
9.727e-121
2.22365e-119
4.7455e-118
9.49641e-117
1.78895e-115
3.1835e-114
5.3681e-113
8.60102e-112
1.31275e-110
1.91293e-109
2.66688e-108
3.56382e-107
4.57287e-106
5.64313e-105
6.70735e-104
7.68916e-103
8.5125e-102
9.11178e-101
9.4406e-100
9.4776e-99
9.22835e-98
8.7232e-97
8.01178e-96
7.15548e-95
6.21928e-94
5.26441e-93
4.3428e-92
3.4937e-91
2.74264e-90
2.10221e-89
1.57419e-88
1.15224e-87
8.24824e-87
5.7773e-86
3.96131e-85
2.66012e-84
1.75025e-83
1.12879e-82
7.13873e-82
4.42879e-81
2.6963e-80
1.61148e-79
9.45807e-79
5.45314e-78
3.08955e-77
1.72061e-76
9.42183e-76
5.07436e-75
2.68868e-74
1.40193e-73
7.19544e-73
3.63613e-72
1.80959e-71
8.87116e-71
4.28491e-70
2.03967e-69
9.57041e-69
4.42734e-68
2.0197e-67
9.08756e-67
4.03376e-66
1.76667e-65
7.63592e-65
3.25768e-64
1.37205e-63
5.70581e-63
2.34328e-62
9.50521e-62
3.80886e-61
1.50796e-60
5.8995e-60
2.28102e-59
8.71759e-59
3.29364e-58
1.23034e-57
4.5447e-57
1.66023e-56
5.9989e-56
2.14422e-55
7.58247e-55
2.65308e-54
9.18621e-54
3.14789e-53
1.06769e-52
3.58481e-52
1.19158e-51
3.92161e-51
1.27801e-50
4.12451e-50
1.31833e-49
4.17383e-49
1.309e-48
4.06707e-48
1.25199e-47
3.81885e-47
1.1543e-46
3.45776e-46
1.02659e-45
3.02108e-45
8.81303e-45
2.54871e-44
7.30775e-44
2.07753e-43
5.85656e-43
1.63721e-42
4.53902e-42
1.2481e-41
3.40404e-41
9.20937e-41
2.47164e-40
6.58093e-40
1.73847e-39
4.55672e-39
1.18514e-38
3.05879e-38
7.8346e-38
1.99158e-37
5.02481e-37
1.25837e-36
3.12815e-36
7.7194e-36
1.89113e-35
4.59963e-35
1.11075e-34
2.6633e-34
6.34105e-34
1.49921e-33
3.52001e-33
8.20784e-33
1.90082e-32
4.37219e-32
9.98911e-32
2.26696e-31
5.1106e-31
1.14454e-30
2.54648e-30
5.62887e-30
1.23621e-29
2.69758e-29
5.84905e-29
1.26021e-28
2.69818e-28
5.74093e-28
1.21394e-27
2.55113e-27
5.32854e-27
1.10622e-26
2.28268e-26
4.68212e-26
9.54656e-26
1.93498e-25
3.89894e-25
7.81041e-25
1.55552e-24
3.0801e-24
6.06401e-24
1.18707e-23
2.31061e-23
4.47228e-23
8.6079e-23
1.64758e-22
3.13611e-22
5.93671e-22
1.1177e-21
2.09287e-21
3.89773e-21
7.22018e-21
1.33035e-20
2.43823e-20
4.4452e-20
8.06174e-20
1.45445e-19
2.61046e-19
4.66116e-19
8.28023e-19
1.46344e-18
2.5734e-18
4.50243e-18
7.83808e-18
1.35771e-17
2.34017e-17
4.01373e-17
6.85042e-17
1.1635e-16
1.96658e-16
3.30795e-16
5.5376e-16
9.22594e-16
1.52981e-15
2.52473e-15
4.14715e-15
6.78042e-15
1.10343e-14
1.7874e-14
2.88207e-14
4.62592e-14
7.39121e-14
1.17562e-13
1.86149e-13
2.93432e-13
4.60488e-13
7.19454e-13
1.1191e-12
1.73313e-12
2.67235e-12
4.10269e-12
6.27141e-12
9.54537e-12
1.44664e-11
2.18313e-11
3.28062e-11
4.90908e-11
7.31513e-11
1.0855e-10
1.6041e-10
2.36069e-10
3.45986e-10
5.05009e-10
7.34126e-10
1.06287e-09
1.53263e-09
2.20115e-09
3.14867e-09
4.48617e-09
6.36659e-09
8.99967e-09
1.2672e-08
1.77732e-08
2.48315e-08
3.45591e-08
4.79127e-08
6.61725e-08
9.10437e-08
1.24789e-07
1.70398e-07
2.31804e-07
3.14164e-07
4.24205e-07
5.70674e-07
7.64894e-07
1.02146e-06
1.35912e-06
1.80185e-06
2.38018e-06
3.13285e-06
4.1088e-06
5.36962e-06
6.9925e-06
9.07382e-06
1.17334e-05
1.51196e-05
1.94154e-05
2.48457e-05
3.16855e-05
4.02701e-05
5.10063e-05
6.43862e-05
8.1002e-05
0.000101564
0.000126921
0.000158082
0.000196244
0.000242818
0.000299462
0.00036812
0.000451055
0.000550896
0.000670682
0.000813914
0.000984606
0.00118734
0.00142733
0.00171049
0.00204346
0.00243372
0.00288963
0.00342048
0.00403659
0.00474932
0.00557116
0.00651575
0.00759794
0.0088338
0.0102407
0.0118371
0.0136429
0.015679
0.0179677
0.0205323
0.0233968
0.0265866
0.0301276
0.0340461
0.0383692
0.043124
0.0483376
0.0540367
0.0602478
0.0669963
0.0743066
0.0822016
0.0907026
0.0998287
0.109597
0.120021
0.131112
0.142879
0.155325
0.168451
0.182254
0.196727
0.211859
0.227633
0.244029
0.261024
0.278588
0.296688
0.315289
0.33435
0.353826
0.373672
0.393836
0.414268
0.434913
0.455715
0.476617
0.497561
0.51849
0.539347
0.560075
0.580618
0.600922
0.620937
0.640613
0.659903
0.678764
0.697156
0.715043
0.732393
0.749177
0.765371
0.780953
0.795908
0.810223
0.82389
0.836904
0.849263
0.860971
0.872033
0.882457
0.892254
0.901439
0.910028
0.918037
0.925487
0.932399
0.938794
0.944695
0.950125
0.955108
0.959666
0.963824
0.967604
0.971029
0.974119
0.976896
0.979378
0.981584
0.983531
0.985234
0.986706
0.987961
0.989008
0.989856
0.990511
0.990979
0.991263
0.991363
0.991278
0.991006
0.990542
0.989878
0.989005
0.987913
0.986589
0.985019
0.983185
0.98107
0.978655
0.975917
0.972836
0.969388
0.965548
0.961291
0.956593
0.951426
0.945767
0.93959
0.932869
0.925582
0.917707
0.909222
0.90011
0.890353
0.879938
0.868854
0.857094
0.844653
0.831531
0.817731
0.803261
0.788132
0.77236
0.755965
0.738971
0.721409
0.703309
0.684709
0.665648
0.646172
0.626327
0.606163
0.585731
0.565086
0.544285
0.523383
0.502439
0.481509
0.460653
0.439925
0.419382
0.399077
0.379063
0.359387
0.340097
0.321236
0.302844
0.284956
0.267606
0.250822
0.234628
0.219046
0.20409
0.189774
0.176107
0.163092
0.150731
0.139022
0.127958
0.117531
0.10773
0.0985412
0.0899475
0.0819312
0.0744725
0.0675501
0.0611418
0.0552242
0.0497736
0.0447656
0.0401757
0.0359796
0.0321529
0.0286718
0.0255129
0.0226534
0.0200712
0.0177453
0.0156552
0.0137816
0.0121062
0.0106116
0.00928155
0.00810076
0.00705499
0.00613103
0.00531663
0.0046005
0.00397229
0.00342251
0.00294249
0.00252438
0.00216104
0.00184603
0.00157357
0.00133846
0.00113604
0.000962184
0.000813194
0.000685811
0.000577153
0.000484678
0.000406156
0.000339634
0.000283406
0.000235987
0.000196087
0.00016259
0.000134531
0.00011108
9.15248e-05
7.52539e-05
6.17459e-05
5.05568e-05
4.13088e-05
3.36821e-05
2.74064e-05
2.22536e-05
1.80321e-05
1.45812e-05
1.17663e-05
9.47528e-06
7.61458e-06
6.10669e-06
4.88734e-06
3.90345e-06
3.11124e-06
2.47475e-06
1.96446e-06
1.55621e-06
1.2303e-06
9.70666e-07
7.64275e-07
6.00552e-07
4.7095e-07
3.68572e-07
2.87871e-07
2.24388e-07
1.74554e-07
1.35517e-07
1.05e-07
8.11929e-08
6.26589e-08
4.82598e-08
3.70961e-08
2.84584e-08
2.17889e-08
)
;

boundaryField
{
    sides
    {
        type            zeroGradient;
    }
    empty
    {
        type            empty;
    }
}


// ************************************************************************* //
