/*--------------------------------*- C++ -*----------------------------------*\
| =========                 |                                                 |
| \\      /  F ield         | OpenFOAM: The Open Source CFD Toolbox           |
|  \\    /   O peration     | Version:  2312                                  |
|   \\  /    A nd           | Website:  www.openfoam.com                      |
|    \\/     M anipulation  |                                                 |
\*---------------------------------------------------------------------------*/
FoamFile
{
    version     2.0;
    format      ascii;
    arch        "LSB;label=32;scalar=64";
    class       volScalarField;
    location    "1.9";
    object      T;
}
// * * * * * * * * * * * * * * * * * * * * * * * * * * * * * * * * * * * * * //

dimensions      [0 0 0 1 0 0 0];

internalField   nonuniform List<scalar> 
1000
(
3.7157e-13
3.74508e-13
3.82627e-13
3.9603e-13
4.14889e-13
4.39446e-13
4.70014e-13
5.06986e-13
5.50831e-13
6.02107e-13
6.61466e-13
7.29658e-13
8.07543e-13
8.96101e-13
9.96441e-13
1.10982e-12
1.23764e-12
1.38149e-12
1.54315e-12
1.7246e-12
1.92807e-12
2.15604e-12
2.41127e-12
2.69685e-12
3.01621e-12
3.37319e-12
3.77204e-12
4.2175e-12
4.71483e-12
5.26988e-12
5.88915e-12
6.57986e-12
7.35003e-12
8.20853e-12
9.16525e-12
1.02311e-11
1.14183e-11
1.27402e-11
1.42117e-11
1.58494e-11
1.76715e-11
1.96982e-11
2.19521e-11
2.44579e-11
2.72429e-11
3.03377e-11
3.37757e-11
3.7594e-11
4.18337e-11
4.65399e-11
5.17628e-11
5.75576e-11
6.39852e-11
7.1113e-11
7.90152e-11
8.77738e-11
9.74791e-11
1.08231e-10
1.20138e-10
1.33323e-10
1.47918e-10
1.6407e-10
1.8194e-10
2.01707e-10
2.23566e-10
2.47732e-10
2.74442e-10
3.03956e-10
3.36562e-10
3.72572e-10
4.12332e-10
4.56223e-10
5.0466e-10
5.581e-10
6.17047e-10
6.8205e-10
7.53714e-10
8.327e-10
9.19736e-10
1.01562e-09
1.12121e-09
1.23748e-09
1.36547e-09
1.50631e-09
1.66128e-09
1.83173e-09
2.01917e-09
2.22523e-09
2.45171e-09
2.70058e-09
2.97396e-09
3.27421e-09
3.60387e-09
3.96574e-09
4.36286e-09
4.79855e-09
5.27644e-09
5.80048e-09
6.37498e-09
7.00463e-09
7.69457e-09
8.45035e-09
9.27807e-09
1.01843e-08
1.11763e-08
1.22619e-08
1.34496e-08
1.47486e-08
1.61691e-08
1.7722e-08
1.94191e-08
2.12736e-08
2.32993e-08
2.55115e-08
2.79269e-08
3.05633e-08
3.34403e-08
3.65791e-08
4.00024e-08
4.37353e-08
4.78046e-08
5.22396e-08
5.70718e-08
6.23354e-08
6.80676e-08
7.43083e-08
8.11011e-08
8.84928e-08
9.65342e-08
1.0528e-07
1.1479e-07
1.25127e-07
1.36362e-07
1.48568e-07
1.61827e-07
1.76225e-07
1.91856e-07
2.08822e-07
2.27232e-07
2.47203e-07
2.68863e-07
2.92347e-07
3.17804e-07
3.45391e-07
3.7528e-07
4.07654e-07
4.42711e-07
4.80663e-07
5.21738e-07
5.66183e-07
6.14261e-07
6.66256e-07
7.22473e-07
7.83238e-07
8.48903e-07
9.19844e-07
9.96466e-07
1.0792e-06
1.16852e-06
1.26491e-06
1.36891e-06
1.4811e-06
1.60208e-06
1.73252e-06
1.87311e-06
2.0246e-06
2.1878e-06
2.36357e-06
2.55283e-06
2.75656e-06
2.97581e-06
3.2117e-06
3.46542e-06
3.73827e-06
4.03159e-06
4.34685e-06
4.6856e-06
5.04949e-06
5.44029e-06
5.85989e-06
6.31028e-06
6.7936e-06
7.31213e-06
7.86828e-06
8.46464e-06
9.10393e-06
9.78908e-06
1.05232e-05
1.13095e-05
1.21516e-05
1.30532e-05
1.40182e-05
1.50508e-05
1.61554e-05
1.73368e-05
1.86001e-05
1.99504e-05
2.13934e-05
2.29352e-05
2.4582e-05
2.63405e-05
2.82178e-05
3.02214e-05
3.23593e-05
3.46399e-05
3.7072e-05
3.9665e-05
4.2429e-05
4.53743e-05
4.85122e-05
5.18541e-05
5.54127e-05
5.92008e-05
6.32323e-05
6.75216e-05
7.20841e-05
7.69359e-05
8.2094e-05
8.75763e-05
9.34017e-05
9.959e-05
0.000106162
0.00011314
0.000120547
0.000128407
0.000136746
0.000145591
0.00015497
0.000164912
0.000175449
0.000186613
0.000198438
0.000210962
0.00022422
0.000238253
0.000253103
0.000268811
0.000285425
0.000302991
0.000321559
0.000341181
0.000361912
0.000383808
0.00040693
0.000431338
0.000457099
0.000484279
0.00051295
0.000543185
0.000575062
0.00060866
0.000644064
0.000681361
0.000720641
0.000762
0.000805535
0.00085135
0.000899551
0.000950249
0.00100356
0.0010596
0.0011185
0.00118039
0.00124539
0.00131366
0.00138533
0.00146056
0.0015395
0.0016223
0.00170915
0.00180021
0.00189566
0.00199569
0.00210048
0.00221024
0.00232518
0.00244549
0.00257141
0.00270316
0.00284097
0.00298509
0.00313575
0.00329323
0.00345778
0.00362967
0.00380918
0.00399662
0.00419226
0.00439642
0.00460941
0.00483155
0.00506319
0.00530465
0.00555628
0.00581846
0.00609155
0.00637592
0.00667196
0.00698007
0.00730066
0.00763415
0.00798096
0.00834152
0.00871629
0.00910572
0.00951027
0.00993042
0.0103667
0.0108195
0.0112894
0.0117769
0.0122825
0.0128068
0.0133503
0.0139136
0.0144971
0.0151016
0.0157275
0.0163755
0.0170462
0.01774
0.0184578
0.0192001
0.0199675
0.0207606
0.0215802
0.0224268
0.0233012
0.0242039
0.0251357
0.0260972
0.0270891
0.0281121
0.0291668
0.0302541
0.0313745
0.0325287
0.0337176
0.0349416
0.0362017
0.0374984
0.0388325
0.0402047
0.0416156
0.043066
0.0445566
0.0460881
0.047661
0.0492762
0.0509344
0.052636
0.054382
0.0561728
0.0580091
0.0598916
0.0618209
0.0637976
0.0658223
0.0678956
0.0700181
0.0721903
0.0744127
0.0766859
0.0790104
0.0813866
0.0838151
0.0862963
0.0888305
0.0914183
0.0940599
0.0967557
0.0995061
0.102311
0.105172
0.108087
0.111058
0.114085
0.117168
0.120307
0.123502
0.126753
0.13006
0.133423
0.136842
0.140318
0.143849
0.147435
0.151077
0.154774
0.158526
0.162332
0.166193
0.170107
0.174074
0.178094
0.182166
0.186289
0.190464
0.194688
0.198961
0.203284
0.207653
0.21207
0.216532
0.221039
0.22559
0.230184
0.234819
0.239495
0.24421
0.248962
0.253751
0.258575
0.263433
0.268323
0.273244
0.278193
0.283171
0.288174
0.293201
0.29825
0.303321
0.30841
0.313515
0.318636
0.32377
0.328915
0.334069
0.339229
0.344395
0.349563
0.354732
0.3599
0.365063
0.37022
0.375369
0.380507
0.385633
0.390743
0.395835
0.400907
0.405957
0.410981
0.415979
0.420947
0.425882
0.430783
0.435647
0.440471
0.445253
0.449991
0.454682
0.459324
0.463914
0.468449
0.472928
0.477348
0.481707
0.486002
0.49023
0.49439
0.49848
0.502496
0.506437
0.510301
0.514085
0.517787
0.521405
0.524937
0.528381
0.531735
0.534997
0.538165
0.541237
0.544211
0.547087
0.549861
0.552532
0.5551
0.557561
0.559915
0.562161
0.564296
0.56632
0.568231
0.570029
0.571712
0.573279
0.574729
0.576062
0.577276
0.57837
0.579345
0.580199
0.580932
0.581544
0.582034
0.582402
0.582647
0.582769
0.582769
0.582647
0.582402
0.582034
0.581544
0.580932
0.580199
0.579345
0.57837
0.577276
0.576062
0.574729
0.573279
0.571712
0.570029
0.568231
0.56632
0.564296
0.562161
0.559915
0.557561
0.5551
0.552532
0.549861
0.547087
0.544211
0.541237
0.538165
0.534997
0.531735
0.528381
0.524937
0.521405
0.517787
0.514085
0.510301
0.506437
0.502496
0.49848
0.49439
0.49023
0.486002
0.481707
0.477348
0.472928
0.468449
0.463914
0.459324
0.454682
0.449991
0.445253
0.440471
0.435647
0.430783
0.425882
0.420947
0.415979
0.410981
0.405957
0.400907
0.395835
0.390743
0.385633
0.380507
0.375369
0.37022
0.365063
0.3599
0.354732
0.349563
0.344395
0.339229
0.334069
0.328915
0.32377
0.318636
0.313515
0.30841
0.303321
0.29825
0.293201
0.288174
0.283171
0.278193
0.273244
0.268323
0.263433
0.258575
0.253751
0.248962
0.24421
0.239495
0.234819
0.230184
0.22559
0.221039
0.216532
0.21207
0.207653
0.203284
0.198961
0.194688
0.190464
0.186289
0.182166
0.178094
0.174074
0.170107
0.166193
0.162332
0.158526
0.154774
0.151077
0.147435
0.143849
0.140318
0.136842
0.133423
0.13006
0.126753
0.123502
0.120307
0.117168
0.114085
0.111058
0.108087
0.105172
0.102311
0.0995061
0.0967557
0.0940599
0.0914183
0.0888305
0.0862963
0.0838151
0.0813866
0.0790104
0.0766859
0.0744127
0.0721903
0.0700181
0.0678956
0.0658223
0.0637976
0.0618209
0.0598916
0.0580091
0.0561728
0.054382
0.052636
0.0509344
0.0492762
0.047661
0.0460881
0.0445566
0.043066
0.0416156
0.0402047
0.0388325
0.0374984
0.0362017
0.0349416
0.0337176
0.0325287
0.0313745
0.0302541
0.0291668
0.0281121
0.0270891
0.0260972
0.0251357
0.0242039
0.0233012
0.0224268
0.0215802
0.0207606
0.0199675
0.0192001
0.0184578
0.01774
0.0170462
0.0163755
0.0157275
0.0151016
0.0144971
0.0139136
0.0133503
0.0128068
0.0122825
0.0117769
0.0112894
0.0108195
0.0103667
0.00993042
0.00951027
0.00910572
0.00871629
0.00834152
0.00798096
0.00763415
0.00730066
0.00698007
0.00667196
0.00637592
0.00609155
0.00581846
0.00555628
0.00530465
0.00506319
0.00483155
0.00460941
0.00439642
0.00419226
0.00399662
0.00380918
0.00362967
0.00345778
0.00329323
0.00313575
0.00298509
0.00284097
0.00270316
0.00257141
0.00244549
0.00232518
0.00221024
0.00210048
0.00199569
0.00189566
0.00180021
0.00170915
0.0016223
0.0015395
0.00146056
0.00138533
0.00131366
0.00124539
0.00118039
0.0011185
0.0010596
0.00100356
0.000950249
0.000899551
0.00085135
0.000805535
0.000762
0.000720641
0.000681361
0.000644064
0.00060866
0.000575062
0.000543185
0.00051295
0.000484279
0.000457099
0.000431338
0.00040693
0.000383808
0.000361912
0.000341181
0.000321559
0.000302991
0.000285425
0.000268811
0.000253103
0.000238253
0.00022422
0.000210962
0.000198438
0.000186613
0.000175449
0.000164912
0.00015497
0.000145591
0.000136746
0.000128407
0.000120547
0.00011314
0.000106162
9.959e-05
9.34017e-05
8.75763e-05
8.2094e-05
7.69359e-05
7.20841e-05
6.75216e-05
6.32323e-05
5.92008e-05
5.54127e-05
5.18541e-05
4.85122e-05
4.53743e-05
4.2429e-05
3.9665e-05
3.7072e-05
3.46399e-05
3.23593e-05
3.02214e-05
2.82178e-05
2.63405e-05
2.4582e-05
2.29352e-05
2.13934e-05
1.99504e-05
1.86001e-05
1.73368e-05
1.61554e-05
1.50508e-05
1.40182e-05
1.30532e-05
1.21516e-05
1.13095e-05
1.05232e-05
9.78908e-06
9.10393e-06
8.46464e-06
7.86828e-06
7.31213e-06
6.7936e-06
6.31028e-06
5.85989e-06
5.44029e-06
5.04949e-06
4.6856e-06
4.34685e-06
4.03159e-06
3.73827e-06
3.46542e-06
3.2117e-06
2.97581e-06
2.75656e-06
2.55283e-06
2.36357e-06
2.1878e-06
2.0246e-06
1.87311e-06
1.73252e-06
1.60208e-06
1.4811e-06
1.36891e-06
1.26491e-06
1.16852e-06
1.0792e-06
9.96466e-07
9.19844e-07
8.48903e-07
7.83238e-07
7.22473e-07
6.66256e-07
6.14261e-07
5.66183e-07
5.21738e-07
4.80663e-07
4.42711e-07
4.07654e-07
3.7528e-07
3.45391e-07
3.17804e-07
2.92347e-07
2.68863e-07
2.47203e-07
2.27232e-07
2.08822e-07
1.91856e-07
1.76225e-07
1.61827e-07
1.48568e-07
1.36362e-07
1.25127e-07
1.1479e-07
1.0528e-07
9.65342e-08
8.84928e-08
8.11011e-08
7.43083e-08
6.80676e-08
6.23354e-08
5.70718e-08
5.22396e-08
4.78046e-08
4.37353e-08
4.00024e-08
3.65791e-08
3.34403e-08
3.05633e-08
2.79269e-08
2.55115e-08
2.32993e-08
2.12736e-08
1.94191e-08
1.7722e-08
1.61691e-08
1.47486e-08
1.34496e-08
1.22619e-08
1.11763e-08
1.01843e-08
9.27807e-09
8.45035e-09
7.69457e-09
7.00463e-09
6.37498e-09
5.80048e-09
5.27644e-09
4.79855e-09
4.36286e-09
3.96574e-09
3.60387e-09
3.27421e-09
2.97396e-09
2.70058e-09
2.45171e-09
2.22523e-09
2.01917e-09
1.83173e-09
1.66128e-09
1.50631e-09
1.36547e-09
1.23748e-09
1.12121e-09
1.01562e-09
9.19736e-10
8.327e-10
7.53714e-10
6.8205e-10
6.17047e-10
5.581e-10
5.0466e-10
4.56223e-10
4.12332e-10
3.72572e-10
3.36562e-10
3.03956e-10
2.74442e-10
2.47732e-10
2.23566e-10
2.01707e-10
1.8194e-10
1.6407e-10
1.47918e-10
1.33323e-10
1.20138e-10
1.08231e-10
9.74791e-11
8.77738e-11
7.90152e-11
7.1113e-11
6.39852e-11
5.75576e-11
5.17628e-11
4.65399e-11
4.18337e-11
3.7594e-11
3.37757e-11
3.03377e-11
2.72429e-11
2.44579e-11
2.19521e-11
1.96982e-11
1.76715e-11
1.58494e-11
1.42117e-11
1.27402e-11
1.14183e-11
1.02311e-11
9.16525e-12
8.20853e-12
7.35003e-12
6.57986e-12
5.88915e-12
5.26988e-12
4.71483e-12
4.2175e-12
3.77204e-12
3.37319e-12
3.01621e-12
2.69685e-12
2.41127e-12
2.15604e-12
1.92807e-12
1.7246e-12
1.54315e-12
1.38149e-12
1.23764e-12
1.10982e-12
9.96441e-13
8.96101e-13
8.07543e-13
7.29658e-13
6.61466e-13
6.02107e-13
5.50831e-13
5.06986e-13
4.70014e-13
4.39446e-13
4.14889e-13
3.9603e-13
3.82627e-13
3.74508e-13
3.7157e-13
)
;

boundaryField
{
    sides
    {
        type            zeroGradient;
    }
    empty
    {
        type            empty;
    }
}


// ************************************************************************* //
