/*--------------------------------*- C++ -*----------------------------------*\
| =========                 |                                                 |
| \\      /  F ield         | OpenFOAM: The Open Source CFD Toolbox           |
|  \\    /   O peration     | Version:  2312                                  |
|   \\  /    A nd           | Website:  www.openfoam.com                      |
|    \\/     M anipulation  |                                                 |
\*---------------------------------------------------------------------------*/
FoamFile
{
    version     2.0;
    format      ascii;
    arch        "LSB;label=32;scalar=64";
    class       volScalarField;
    location    "4.6";
    object      T;
}
// * * * * * * * * * * * * * * * * * * * * * * * * * * * * * * * * * * * * * //

dimensions      [0 0 0 1 0 0 0];

internalField   nonuniform List<scalar> 
1000
(
0
0
0
0
0
0
0
0
0
0
0
0
0
0
0
0
0
0
0
0
0
0
0
0
0
0
0
0
0
0
0
0
0
0
0
0
0
0
0
0
0
0
0
0
0
0
0
0
0
0
0
0
0
0
0
0
0
0
0
0
0
0
0
0
0
0
0
0
0
0
0
0
0
0
0
0
0
0
0
0
0
0
0
0
0
0
0
0
0
0
0
0
0
0
0
0
0
0
0
0
0
0
0
0
0
0
0
0
0
0
0
0
0
0
0
0
0
0
0
0
0
0
0
0
0
0
0
0
0
0
0
0
0
0
0
0
0
0
0
0
0
0
0
0
0
0
0
0
0
0
0
0
0
0
0
0
0
0
0
0
0
0
0
0
0
0
0
0
0
0
0
0
0
0
0
0
0
0
0
0
0
0
0
0
0
0
0
0
0
0
0
0
0
0
0
0
0
0
0
0
0
0
0
0
0
0
0
0
0
0
0
0
0
0
0
0
0
0
0
0
0
0
0
0
0
0
0
0
0
0
0
0
0
0
0
0
0
0
0
0
0
0
0
0
0
0
0
0
0
0
0
0
0
0
0
0
0
0
0
0
0
0
0
0
0
0
0
0
0
0
0
0
0
0
0
0
0
0
0
0
0
0
0
0
0
0
0
0
0
0
0
0
0
0
0
0
0
0
0
0
0
0
0
0
0
0
0
0
0
0
0
0
0
0
0
0
0
0
0
0
0
0
0
0
0
0
0
0
0
0
0
0
0
0
0
0
0
0
0
0
0
0
0
0
0
0
0
0
0
0
0
0
0
0
0
0
0
0
0
0
0
0
0
0
0
0
0
0
0
0
0
0
0
0
0
0
0
0
0
0
0
0
0
0
0
0
0
0
0
0
0
0
0
0
0
0
0
0
0
0
0
0
0
0
0
0
0
0
0
0
0
0
0
0
0
0
0
0
0
0
0
0
0
0
0
0
0
0
0
0
0
0
0
0
0
0
0
0
0
0
0
0
0
0
0
0
0
0
0
0
4.4145e-132
1.29666e-129
1.90476e-127
1.86578e-125
1.37101e-123
8.06139e-122
3.95091e-120
1.66011e-118
6.10495e-117
1.99606e-115
5.875e-114
1.57235e-112
3.85832e-111
8.74149e-110
1.83944e-108
3.61346e-107
6.65626e-106
1.15427e-104
1.89086e-103
2.93515e-102
4.32936e-101
6.08311e-100
8.16064e-99
1.04741e-97
1.28862e-96
1.5223e-95
1.7296e-94
1.89277e-93
1.99781e-92
2.03644e-91
2.00707e-90
1.91476e-89
1.77001e-88
1.58698e-87
1.38135e-86
1.16827e-85
9.60839e-85
7.69054e-84
5.99487e-83
4.5543e-82
3.37417e-81
2.43943e-80
1.72204e-79
1.18762e-78
8.00624e-78
5.27859e-77
3.40535e-76
2.15063e-75
1.33022e-74
8.06175e-74
4.78916e-73
2.7899e-72
1.59435e-71
8.94142e-71
4.92278e-70
2.66162e-69
1.41369e-68
7.37866e-68
3.7857e-67
1.90981e-66
9.47625e-66
4.62597e-65
2.22233e-64
1.0509e-63
4.89305e-63
2.24369e-62
1.01348e-61
4.51061e-61
1.97844e-60
8.55401e-60
3.64643e-59
1.53287e-58
6.35581e-58
2.59983e-57
1.04933e-56
4.17972e-56
1.64336e-55
6.37881e-55
2.4448e-54
9.25372e-54
3.45961e-53
1.27774e-52
4.66262e-52
1.68133e-51
5.99207e-51
2.11087e-50
7.35136e-50
2.53136e-49
8.6194e-49
2.90265e-48
9.66852e-48
3.18587e-47
1.0386e-46
3.35026e-46
1.06946e-45
3.37874e-45
1.05657e-44
3.27073e-44
1.00239e-43
3.04174e-43
9.13994e-43
2.71985e-42
8.01623e-42
2.34024e-41
6.76793e-41
1.93909e-40
5.50458e-40
1.54837e-39
4.31607e-39
1.19234e-38
3.26475e-38
8.86076e-38
2.38396e-37
6.35873e-37
1.68158e-36
4.40934e-36
1.1465e-35
2.95629e-35
7.5601e-35
1.91755e-34
4.82431e-34
1.20399e-33
2.98083e-33
7.3217e-33
1.78432e-32
4.31468e-32
1.03531e-31
2.46524e-31
5.82567e-31
1.36634e-30
3.18068e-30
7.34953e-30
1.68578e-29
3.83855e-29
8.67732e-29
1.94751e-28
4.33985e-28
9.60266e-28
2.10987e-27
4.60351e-27
9.97503e-27
2.14661e-26
4.58807e-26
9.74012e-26
2.05389e-25
4.30221e-25
8.95214e-25
1.85056e-24
3.80052e-24
7.75469e-24
1.57213e-23
3.16688e-23
6.33893e-23
1.26084e-22
2.49219e-22
4.89554e-22
9.55727e-22
1.85438e-21
3.57616e-21
6.85491e-21
1.30609e-20
2.47369e-20
4.65735e-20
8.71703e-20
1.622e-19
3.00057e-19
5.51875e-19
1.00921e-18
1.835e-18
3.31761e-18
5.96434e-18
1.06626e-17
1.89558e-17
3.35132e-17
5.89248e-17
1.03039e-16
1.79203e-16
3.09983e-16
5.33332e-16
9.12719e-16
1.55371e-15
2.63094e-15
4.43171e-15
7.42621e-15
1.23797e-14
2.05312e-14
3.38759e-14
5.56103e-14
9.08278e-14
1.47603e-13
2.38668e-13
3.83999e-13
6.14775e-13
9.79407e-13
1.55269e-12
2.44957e-12
3.84585e-12
6.00902e-12
9.34406e-12
1.4461e-11
2.22744e-11
3.41482e-11
5.2107e-11
7.91408e-11
1.19644e-10
1.80046e-10
2.69703e-10
4.02167e-10
5.96979e-10
8.82173e-10
1.29778e-09
1.90068e-09
2.77135e-09
4.02306e-09
5.81454e-09
8.36715e-09
1.19882e-08
1.71022e-08
2.42933e-08
3.43607e-08
4.83939e-08
6.78708e-08
9.47866e-08
1.31824e-07
1.8257e-07
2.51808e-07
3.45874e-07
4.73137e-07
6.44591e-07
8.74622e-07
1.18196e-06
1.59091e-06
2.1328e-06
2.84794e-06
3.78788e-06
5.01827e-06
6.62237e-06
8.70531e-06
1.13992e-05
1.48694e-05
1.93219e-05
2.50122e-05
3.22559e-05
4.14411e-05
5.30426e-05
6.76395e-05
8.59341e-05
0.000108775
0.000137183
0.000172381
0.000215824
0.000269244
0.000334683
0.000414546
0.000511647
0.000629269
0.000771222
0.000941907
0.00114639
0.00139046
0.00168072
0.00202467
0.00243076
0.00290849
0.00346849
0.0041226
0.00488389
0.0057668
0.00678715
0.0079622
0.00931065
0.0108527
0.01261
0.0146058
0.0168645
0.019412
0.0222754
0.0254829
0.0290638
0.0330479
0.0374657
0.0423481
0.0477257
0.0536292
0.0600885
0.0671325
0.0747888
0.0830835
0.0920403
0.101681
0.112023
0.123083
0.134871
0.147397
0.160662
0.174667
0.189404
0.204865
0.221032
0.237886
0.2554
0.273544
0.292281
0.311571
0.33137
0.351628
0.372292
0.393306
0.414611
0.436145
0.457845
0.479647
0.501485
0.523294
0.545009
0.566566
0.587903
0.608959
0.629678
0.650005
0.669889
0.689283
0.708144
0.726434
0.744118
0.761169
0.777561
0.793275
0.808296
0.822614
0.836223
0.849122
0.861313
0.872802
0.883601
0.893722
0.903181
0.911998
0.920191
0.927786
0.934805
0.941274
0.947219
0.952668
0.957648
0.962184
0.966305
0.970037
0.973405
0.976434
0.979148
0.98157
0.983719
0.985616
0.98728
0.988726
0.989968
0.991021
0.991894
0.992598
0.993138
0.99352
0.993747
0.99382
0.993738
0.993498
0.993093
0.992518
0.991762
0.990813
0.989658
0.988281
0.986663
0.984787
0.982628
0.980166
0.977374
0.974226
0.970696
0.966754
0.962371
0.957518
0.952165
0.946281
0.939838
0.932808
0.925163
0.916877
0.907928
0.898294
0.887956
0.876901
0.865115
0.852593
0.83933
0.825327
0.81059
0.795131
0.778964
0.762111
0.744598
0.726455
0.707718
0.688428
0.668629
0.648372
0.627708
0.606694
0.585389
0.563855
0.542154
0.520353
0.498515
0.476706
0.454991
0.433434
0.412097
0.391041
0.370322
0.349995
0.330111
0.310717
0.291856
0.273566
0.255881
0.238831
0.222438
0.206724
0.191703
0.177385
0.163776
0.150877
0.138685
0.127195
0.116395
0.106273
0.0968119
0.0879938
0.0797973
0.0721995
0.065176
0.0587012
0.0527483
0.0472903
0.0422994
0.0377481
0.0336087
0.0298541
0.0264576
0.0233932
0.0206358
0.0181612
0.0159463
0.013969
0.0122085
0.0106451
0.00926035
0.00803704
0.00695913
0.00601181
0.00518139
0.00445533
0.00382213
0.00327133
0.00279342
0.00237981
0.00202276
0.00171531
0.00145123
0.00122498
0.00103162
0.000866785
0.000726614
0.000607713
0.000507104
0.000422183
0.000350679
0.000290621
0.0002403
0.000198239
0.000163169
0.000133998
0.000109793
8.9757e-05
7.32114e-05
5.95811e-05
4.83794e-05
3.91953e-05
3.16835e-05
2.55539e-05
2.05641e-05
1.65117e-05
1.32283e-05
1.05743e-05
8.43397e-06
6.71197e-06
5.32974e-06
4.22281e-06
3.33841e-06
2.63343e-06
2.07276e-06
1.62789e-06
1.2757e-06
9.97529e-07
7.78313e-07
6.05952e-07
4.70738e-07
3.64904e-07
2.82253e-07
2.17852e-07
1.67783e-07
1.28944e-07
9.88835e-08
7.56686e-08
5.77803e-08
4.40269e-08
3.34759e-08
2.53994e-08
1.92307e-08
1.45294e-08
1.09543e-08
8.24154e-09
6.18755e-09
4.63573e-09
3.46584e-09
2.58579e-09
1.92519e-09
1.43037e-09
1.06053e-09
7.84696e-10
5.79403e-10
4.26938e-10
3.13947e-10
2.30386e-10
1.6872e-10
1.23307e-10
8.99344e-11
6.54605e-11
4.755e-11
3.44701e-11
2.49377e-11
1.8005e-11
1.29735e-11
9.32926e-12
6.69526e-12
4.79534e-12
3.42771e-12
2.44526e-12
1.74093e-12
1.23702e-12
)
;

boundaryField
{
    sides
    {
        type            zeroGradient;
    }
    empty
    {
        type            empty;
    }
}


// ************************************************************************* //
