/*--------------------------------*- C++ -*----------------------------------*\
| =========                 |                                                 |
| \\      /  F ield         | OpenFOAM: The Open Source CFD Toolbox           |
|  \\    /   O peration     | Version:  2312                                  |
|   \\  /    A nd           | Website:  www.openfoam.com                      |
|    \\/     M anipulation  |                                                 |
\*---------------------------------------------------------------------------*/
FoamFile
{
    version     2.0;
    format      ascii;
    arch        "LSB;label=32;scalar=64";
    class       volScalarField;
    location    "2.3";
    object      T;
}
// * * * * * * * * * * * * * * * * * * * * * * * * * * * * * * * * * * * * * //

dimensions      [0 0 0 1 0 0 0];

internalField   nonuniform List<scalar> 
1000
(
0
0
0
0
0
0
0
0
0
0
0
0
0
0
0
0
0
0
0
0
0
0
0
0
0
0
0
0
0
0
0
0
0
0
0
0
0
0
0
0
0
0
0
0
0
0
0
0
0
0
0
0
0
0
0
0
0
0
0
0
0
0
0
0
0
0
0
0
0
0
0
0
0
0
0
0
0
0
0
0
0
0
0
0
0
0
0
0
0
0
0
0
0
0
0
0
0
0
0
0
0
0
0
0
0
0
0
0
0
0
0
0
0
0
0
0
0
0
0
0
0
0
0
0
0
0
0
0
0
0
0
0
0
0
0
0
0
0
0
0
0
0
0
0
0
0
0
0
0
0
0
0
0
0
0
0
0
0
0
0
0
0
0
0
0
0
0
0
0
0
0
0
0
0
0
0
0
0
0
0
0
0
0
0
0
0
0
0
0
0
0
0
0
0
0
0
0
0
0
0
0
0
0
0
0
0
0
0
0
0
0
0
0
0
0
0
0
0
0
0
0
0
0
0
0
0
0
0
0
0
0
0
0
0
0
0
0
0
0
0
0
0
0
0
0
0
0
0
0
0
0
0
0
0
0
6.52167e-322
7.6926e-320
8.57133e-318
9.50336e-316
1.04863e-313
1.15153e-311
1.25842e-309
1.36854e-307
1.48102e-305
1.59486e-303
1.70895e-301
1.8221e-299
1.93302e-297
2.04037e-295
2.14279e-293
2.23888e-291
2.3273e-289
2.40674e-287
2.476e-285
2.53396e-283
2.57968e-281
2.61236e-279
2.6314e-277
2.63642e-275
2.62725e-273
2.60395e-271
2.5668e-269
2.51633e-267
2.45324e-265
2.37848e-263
2.29311e-261
2.19839e-259
2.09566e-257
1.98636e-255
1.87198e-253
1.754e-251
1.63393e-249
1.51317e-247
1.3931e-245
1.27496e-243
1.15988e-241
1.04886e-239
9.42726e-238
8.42177e-236
7.47742e-234
6.59799e-232
5.78581e-230
5.04185e-228
4.36586e-226
3.75651e-224
3.21154e-222
2.72794e-220
2.30214e-218
1.9301e-216
1.60753e-214
1.32999e-212
1.09302e-210
8.92221e-209
7.2337e-207
5.82465e-205
4.65776e-203
3.69879e-201
2.91671e-199
2.28377e-197
1.77548e-195
1.37043e-193
1.05014e-191
7.98854e-190
6.03237e-188
4.5215e-186
3.36376e-184
2.48363e-182
1.81988e-180
1.32332e-178
9.54816e-177
6.8357e-175
4.85539e-173
3.42146e-171
2.39176e-169
1.65847e-167
1.14065e-165
7.78072e-164
5.26352e-162
3.53093e-160
2.34868e-158
1.54898e-156
1.01279e-154
6.56467e-153
4.21779e-151
2.68597e-149
1.69521e-147
1.06026e-145
6.57094e-144
4.03489e-142
2.45461e-140
1.47925e-138
8.83e-137
5.22037e-135
3.05645e-133
1.772e-131
1.01717e-129
5.78049e-128
3.2518e-126
1.81061e-124
9.97738e-123
5.44061e-121
2.9354e-119
1.56683e-117
8.27283e-116
4.32028e-114
2.23119e-112
1.13938e-110
5.7524e-109
2.8709e-107
1.41615e-105
6.90341e-104
3.32515e-102
1.58229e-100
7.43734e-99
3.45252e-97
1.58259e-95
7.1621e-94
3.19944e-92
1.41056e-90
6.13634e-89
2.63358e-87
1.11486e-85
4.65409e-84
1.9156e-82
7.77208e-81
3.10766e-79
1.22432e-77
4.75142e-76
1.81597e-74
6.83349e-73
2.53113e-71
9.2259e-70
3.3083e-68
1.16675e-66
4.04578e-65
1.37894e-63
4.61813e-62
1.51924e-60
4.90766e-59
1.55618e-57
4.842e-56
1.47775e-54
4.422e-53
1.29687e-51
3.72607e-50
1.0483e-48
2.88667e-47
7.77635e-46
2.04832e-44
5.27271e-43
1.32568e-41
3.25357e-40
7.78986e-39
1.8183e-37
4.13498e-36
9.15461e-35
1.97169e-33
4.12781e-32
8.39297e-31
1.65591e-29
3.16717e-28
5.86643e-27
1.05118e-25
1.82003e-24
3.04119e-23
4.89768e-22
7.59107e-21
1.1306e-19
1.61543e-18
2.21032e-17
2.89036e-16
3.60451e-15
4.27677e-14
4.81537e-13
5.13029e-12
5.15542e-11
4.86907e-10
4.3047e-09
3.54634e-08
2.70837e-07
1.90608e-06
1.22769e-05
7.17872e-05
0.000377482
0.00176493
0.00723876
0.0256241
0.0767885
0.190571
0.383212
0.616788
0.809429
0.923212
0.974376
0.992761
0.998235
0.999623
0.999928
0.999988
0.999998
1
1
1
1
1
1
1
1
1
1
1
1
1
1
1
1
1
1
1
1
1
1
1
1
1
1
1
1
1
1
1
1
1
1
1
1
1
1
1
1
1
1
1
1
1
1
1
1
1
1
1
1
1
1
1
1
1
1
1
1
1
1
1
1
1
1
1
1
1
1
1
1
1
1
1
1
1
1
1
1
0.999998
0.999988
0.999928
0.999623
0.998235
0.992761
0.974376
0.923212
0.809429
0.616788
0.383212
0.190571
0.0767885
0.0256241
0.00723876
0.00176493
0.000377482
7.17872e-05
1.22769e-05
1.90608e-06
2.70837e-07
3.54634e-08
4.3047e-09
4.86907e-10
5.15542e-11
5.13029e-12
4.81537e-13
4.27677e-14
3.60451e-15
2.89036e-16
2.21032e-17
1.61543e-18
1.1306e-19
7.59107e-21
4.89768e-22
3.04119e-23
1.82003e-24
1.05118e-25
5.86643e-27
3.16717e-28
1.65591e-29
8.39297e-31
4.12781e-32
1.97169e-33
9.15461e-35
4.13498e-36
1.8183e-37
7.78986e-39
3.25357e-40
1.32568e-41
5.27271e-43
2.04832e-44
7.77635e-46
2.88667e-47
1.0483e-48
3.72607e-50
1.29687e-51
4.422e-53
1.47775e-54
4.842e-56
1.55618e-57
4.90766e-59
1.51924e-60
4.61813e-62
1.37894e-63
4.04578e-65
1.16675e-66
3.3083e-68
9.2259e-70
2.53113e-71
6.83349e-73
1.81597e-74
4.75142e-76
1.22432e-77
3.10766e-79
7.77208e-81
1.9156e-82
4.65409e-84
1.11486e-85
2.63358e-87
6.13634e-89
1.41056e-90
3.19944e-92
7.1621e-94
1.58259e-95
3.45252e-97
7.43734e-99
1.58229e-100
3.32515e-102
6.90341e-104
1.41615e-105
2.8709e-107
5.7524e-109
1.13938e-110
2.23119e-112
4.32028e-114
8.27283e-116
1.56683e-117
2.9354e-119
5.44061e-121
9.97738e-123
1.81061e-124
3.2518e-126
5.78049e-128
1.01717e-129
1.772e-131
3.05645e-133
5.22037e-135
8.83e-137
1.47925e-138
2.45461e-140
4.03489e-142
6.57094e-144
1.06026e-145
1.69521e-147
2.68597e-149
4.21779e-151
6.56467e-153
1.01279e-154
1.54898e-156
2.34868e-158
3.53093e-160
5.26352e-162
7.78072e-164
1.14065e-165
1.65847e-167
2.39176e-169
3.42146e-171
4.85539e-173
6.8357e-175
9.54816e-177
1.32332e-178
1.81988e-180
2.48363e-182
3.36376e-184
4.5215e-186
6.03237e-188
7.98854e-190
1.05014e-191
1.37043e-193
1.77548e-195
2.28377e-197
2.91671e-199
3.69879e-201
4.65776e-203
5.82465e-205
7.2337e-207
8.92221e-209
1.09302e-210
1.32999e-212
1.60753e-214
1.9301e-216
2.30214e-218
2.72794e-220
3.21154e-222
3.75651e-224
4.36586e-226
5.04185e-228
5.78581e-230
6.59799e-232
7.47742e-234
8.42177e-236
9.42726e-238
1.04886e-239
1.15988e-241
1.27496e-243
1.3931e-245
1.51317e-247
1.63393e-249
1.754e-251
1.87198e-253
1.98636e-255
2.09566e-257
2.19839e-259
2.29311e-261
2.37848e-263
2.45324e-265
2.51633e-267
2.5668e-269
2.60395e-271
2.62725e-273
2.63642e-275
2.6314e-277
2.61236e-279
2.57968e-281
2.53396e-283
2.476e-285
2.40674e-287
2.3273e-289
2.23888e-291
2.14279e-293
2.04037e-295
1.93302e-297
1.8221e-299
1.70895e-301
1.59486e-303
1.48102e-305
1.36854e-307
1.25842e-309
1.15153e-311
1.04863e-313
9.50336e-316
8.57133e-318
7.6926e-320
6.52167e-322
0
0
0
0
0
0
0
0
0
0
0
0
0
0
0
0
0
0
0
0
0
0
0
0
0
0
0
0
0
0
0
0
0
0
0
0
0
0
0
0
0
0
0
0
0
0
0
0
0
0
0
0
0
0
0
0
0
0
0
0
0
0
0
0
0
0
0
0
0
0
0
0
0
0
0
0
0
0
0
0
0
0
0
0
0
0
0
0
0
0
0
0
0
0
0
0
0
0
0
0
0
0
0
0
0
0
0
0
0
0
0
0
0
0
0
0
0
0
0
0
0
0
0
0
0
0
0
0
0
0
0
0
0
0
0
0
0
0
0
0
0
0
0
0
0
0
0
0
0
0
0
0
0
0
0
0
0
0
0
0
0
0
0
0
0
0
0
0
0
0
0
0
0
0
0
0
0
0
0
0
0
0
0
0
0
0
0
0
0
0
0
0
0
0
0
0
0
0
0
0
0
0
0
0
0
0
0
0
0
0
0
0
0
0
0
0
0
0
0
0
0
0
0
0
0
0
0
0
0
0
0
0
0
0
0
0
0
0
0
0
0
0
0
0
0
0
0
0
0
0
0
0
0
0
0
)
;

boundaryField
{
    sides
    {
        type            zeroGradient;
    }
    empty
    {
        type            empty;
    }
}


// ************************************************************************* //
