/*--------------------------------*- C++ -*----------------------------------*\
| =========                 |                                                 |
| \\      /  F ield         | OpenFOAM: The Open Source CFD Toolbox           |
|  \\    /   O peration     | Version:  2312                                  |
|   \\  /    A nd           | Website:  www.openfoam.com                      |
|    \\/     M anipulation  |                                                 |
\*---------------------------------------------------------------------------*/
FoamFile
{
    version     2.0;
    format      ascii;
    arch        "LSB;label=32;scalar=64";
    class       volScalarField;
    location    "4.2";
    object      T;
}
// * * * * * * * * * * * * * * * * * * * * * * * * * * * * * * * * * * * * * //

dimensions      [0 0 0 1 0 0 0];

internalField   nonuniform List<scalar> 
1000
(
9.62362e-292
-1.51656e-291
1.19546e-290
-7.16908e-290
4.38389e-289
-2.66584e-288
1.61582e-287
-9.75967e-287
5.87442e-286
-3.5235e-285
2.106e-284
-1.25432e-283
7.44416e-283
-4.40228e-282
2.59409e-281
-1.52311e-280
8.91065e-280
-5.19412e-279
3.0167e-278
-1.74566e-277
1.00645e-276
-5.7812e-276
3.3085e-275
-1.88635e-274
1.07149e-273
-6.06335e-273
3.41817e-272
-1.91965e-271
1.07396e-270
-5.98529e-270
3.32279e-269
-1.83752e-268
1.0122e-267
-5.55385e-267
3.03534e-266
-1.65233e-265
8.9589e-265
-4.83803e-264
2.60214e-263
-1.39389e-262
7.43628e-262
-3.95093e-261
2.0905e-260
-1.10153e-259
5.78005e-259
-3.02023e-258
1.57149e-257
-8.1421e-257
4.20051e-256
-2.15773e-255
1.1036e-254
-5.61989e-254
2.8493e-253
-1.43824e-252
7.22753e-252
-3.61579e-251
1.80077e-250
-8.92776e-250
4.40595e-249
-2.1644e-248
1.05833e-247
-5.15078e-247
2.49507e-246
-1.20291e-245
5.77174e-245
-2.75607e-244
1.30968e-243
-6.19323e-243
2.91425e-242
-1.36451e-241
6.357e-241
-2.94667e-240
1.35893e-239
-6.23487e-239
2.84581e-238
-1.29214e-237
5.83606e-237
-2.62189e-236
1.17158e-235
-5.20675e-235
2.30133e-234
-1.01154e-233
4.42137e-233
-1.92164e-232
8.30431e-232
-3.56799e-231
1.52407e-230
-6.47174e-230
2.73174e-229
-1.14612e-228
4.77925e-228
-1.9806e-227
8.1566e-227
-3.33779e-226
1.35709e-225
-5.4818e-225
2.19968e-224
-8.76754e-224
3.47084e-223
-1.36453e-222
5.32698e-222
-2.06478e-221
7.94531e-221
-3.03486e-220
1.15054e-219
-4.32847e-219
1.61577e-218
-5.98364e-218
2.19798e-217
-8.00715e-217
2.89233e-216
-1.03573e-215
3.6761e-215
-1.29291e-214
4.50487e-214
-1.5546e-213
5.31194e-213
-1.7966e-212
6.01266e-212
-1.99039e-211
6.51463e-211
-2.10728e-210
6.73314e-210
-2.12386e-209
6.60949e-209
-2.02778e-208
6.12787e-208
-1.82221e-207
5.32555e-207
-1.52749e-206
4.29203e-206
-1.17878e-205
3.15508e-205
-8.19725e-205
2.05574e-204
-4.93468e-204
1.11841e-203
-2.33428e-203
4.24655e-203
-5.66125e-203
-1.16004e-204
3.84029e-202
-1.89803e-201
6.82624e-201
-2.10012e-200
5.77265e-200
-1.42941e-199
3.13836e-199
-5.77002e-199
7.14135e-199
3.76252e-199
-6.54345e-198
2.89078e-197
-9.49567e-197
2.61482e-196
-6.14818e-196
1.18468e-195
-1.53456e-195
-5.90522e-196
1.2866e-194
-5.61737e-194
1.7676e-193
-4.50555e-193
9.2168e-193
-1.28938e-192
-1.21756e-193
8.99264e-192
-4.01568e-191
1.23486e-190
-2.96282e-190
5.2965e-190
-4.47377e-190
-1.44669e-189
9.35738e-189
-3.21512e-188
8.14945e-188
-1.50674e-187
1.33543e-187
3.91428e-187
-2.5707e-186
8.6358e-186
-2.07665e-185
3.37985e-185
-1.12633e-185
-1.69567e-184
7.95414e-184
-2.28761e-183
4.56745e-183
-4.56351e-183
-1.01396e-182
7.1665e-182
-2.33687e-181
5.11449e-181
-6.20787e-181
-7.09998e-181
6.87499e-180
-2.35701e-179
5.21518e-179
-6.14387e-179
-8.35313e-179
7.26456e-178
-2.38066e-177
4.89347e-177
-4.36468e-177
-1.37053e-176
8.16595e-176
-2.34085e-175
3.99923e-175
-8.09053e-176
-2.20741e-174
9.03898e-174
-2.0891e-173
2.32241e-173
4.26105e-173
-3.07717e-172
8.97414e-172
-1.45425e-171
-1.59907e-172
9.69332e-171
-3.50748e-170
6.94584e-170
-3.75066e-170
-2.95082e-169
1.31309e-168
-2.9474e-168
2.52829e-168
9.17356e-168
-4.86704e-167
1.17362e-166
-1.16844e-166
-3.1162e-166
1.82323e-165
-4.48743e-165
4.46025e-165
1.21214e-164
-6.95368e-164
1.656e-163
-1.41863e-163
-5.3176e-163
2.68267e-162
-5.83816e-162
3.27454e-162
2.47324e-161
-1.02756e-160
1.90999e-160
-5.66062e-162
-1.14623e-159
3.79724e-159
-5.42807e-159
-5.44594e-159
5.06084e-158
-1.29924e-157
1.0944e-157
4.38282e-157
-2.05372e-156
3.83559e-156
3.55855e-157
-2.42713e-155
7.3388e-155
-8.09819e-155
-1.92352e-154
1.07684e-153
-2.12868e-153
-5.43077e-156
1.27858e-152
-3.83764e-152
3.81372e-152
1.16177e-151
-5.71557e-151
9.8812e-151
5.17156e-151
-7.39469e-150
1.83387e-149
-8.84707e-150
-8.36322e-149
2.90911e-148
-3.28661e-148
-7.97245e-148
4.18167e-147
-6.94755e-147
-5.43969e-147
5.60226e-146
-1.21602e-145
1.61355e-147
7.11493e-145
-1.92875e-144
9.92856e-145
8.67419e-144
-2.88251e-143
2.51782e-143
1.02723e-142
-4.14953e-142
4.75018e-142
1.19835e-141
-5.83836e-141
7.8806e-141
1.40374e-140
-8.11254e-140
1.21278e-139
1.69401e-139
-1.12147e-138
1.77168e-138
2.16682e-138
-1.54944e-137
2.48182e-137
2.99697e-137
-2.14344e-136
3.34166e-136
4.48012e-136
-2.96601e-135
4.30589e-135
7.09105e-135
-4.09023e-134
5.2415e-134
1.15506e-133
-5.58615e-133
5.85831e-133
1.88808e-132
-7.48849e-132
5.61007e-132
3.04021e-131
-9.73443e-131
3.57361e-131
4.75818e-130
-1.2059e-129
-1.66053e-130
7.15955e-129
-1.38425e-128
-1.20064e-128
1.02414e-127
-1.3927e-127
-2.96613e-127
1.3725e-126
-1.04643e-126
-5.64227e-126
1.68361e-125
-9.38994e-127
-9.22894e-125
1.80673e-124
1.73948e-124
-1.33211e-123
1.50485e-123
4.63519e-123
-1.68265e-122
4.77216e-123
8.4692e-122
-1.77395e-121
-1.54878e-121
1.25179e-120
-1.32109e-120
-4.62595e-120
1.51829e-119
-2.65717e-121
-8.30205e-119
1.39671e-118
2.24976e-118
-1.13337e-117
6.05272e-118
5.22608e-117
-1.16237e-116
-1.01927e-116
7.92908e-116
-6.71948e-116
-3.28356e-115
8.63704e-115
4.83836e-115
-5.40433e-114
5.34748e-114
2.14389e-113
-5.98932e-113
-3.00789e-113
3.65678e-112
-3.50464e-112
-1.48224e-111
3.91889e-111
2.63955e-111
-2.4573e-110
1.85098e-110
1.07232e-109
-2.38393e-109
-2.66425e-109
1.61085e-108
-6.03807e-109
-7.8279e-108
1.28214e-107
2.60392e-107
-9.92659e-107
-2.04988e-107
5.49705e-106
-5.26702e-106
-2.30394e-105
5.37598e-105
6.16918e-105
-3.50885e-104
5.55917e-105
1.78463e-103
-2.17413e-103
-7.09639e-103
1.86691e-102
1.82424e-102
-1.15765e-101
1.8565e-102
5.85688e-101
-6.5568e-101
-2.43091e-100
5.65818e-100
7.46194e-100
-3.60351e-99
-6.83152e-100
1.92368e-98
-1.29066e-98
-8.84551e-98
1.39609e-97
3.42234e-97
-9.91128e-97
-9.82183e-97
5.84239e-96
6.24867e-97
-3.03802e-95
1.8876e-95
1.41764e-94
-1.95303e-94
-5.88998e-94
1.38888e-93
2.08448e-93
-8.39204e-93
-5.30974e-93
4.57835e-92
-5.59638e-94
-2.31137e-91
1.34814e-91
1.09071e-90
-1.27128e-90
-4.81602e-90
8.86828e-90
1.97358e-89
-5.40691e-89
-7.32838e-89
3.04058e-88
2.30963e-88
-1.61669e-87
-4.77764e-88
8.24027e-87
-8.25988e-88
-4.06121e-86
1.87397e-86
1.94698e-85
-1.57484e-85
-9.1201e-85
1.05524e-84
4.18929e-84
-6.35572e-84
-1.89311e-83
3.59322e-83
8.4423e-83
-1.94732e-82
-3.72762e-82
1.02387e-81
1.63577e-81
-5.26285e-81
-7.16598e-81
2.65833e-80
3.15058e-80
-1.32433e-79
-1.39865e-79
6.52384e-79
6.31003e-79
-3.18354e-78
-2.91036e-78
1.54067e-77
1.37825e-77
-7.3983e-77
-6.71227e-77
3.5251e-76
3.35657e-76
-1.66561e-75
-1.7161e-75
7.79519e-75
8.91692e-75
-3.60681e-74
-4.67837e-74
1.6455e-73
2.46328e-73
-7.37412e-73
-1.2946e-72
3.22867e-72
6.76053e-72
-1.37018e-71
-3.4944e-71
5.56529e-71
1.78165e-70
-2.11565e-70
-8.9313e-70
7.18232e-70
4.38713e-69
-1.90227e-69
-2.10349e-68
1.35414e-69
9.79735e-68
3.1194e-68
-4.40412e-67
-3.24269e-67
1.89253e-66
2.31835e-66
-7.65472e-66
-1.41876e-65
2.83162e-65
7.88195e-65
-8.97008e-65
-4.06135e-64
1.93247e-64
1.95356e-63
2.11175e-64
-8.74525e-63
-6.06873e-63
3.59474e-62
4.94e-62
-1.31352e-61
-3.06416e-61
3.91404e-61
1.63698e-60
-6.45847e-61
-7.78045e-60
-2.59527e-60
3.28917e-59
3.56389e-59
-1.19952e-58
-2.49449e-58
3.40242e-58
1.37316e-57
-4.10616e-58
-6.4041e-57
-3.46827e-57
2.5323e-56
3.68182e-56
-7.94627e-56
-2.31298e-55
1.42114e-55
1.14036e-54
4.25221e-55
-4.57796e-54
-6.17168e-54
1.40001e-53
4.03735e-53
-2.09922e-53
-1.95648e-52
-1.06787e-52
7.34911e-52
1.22116e-51
-1.87998e-51
-7.24026e-51
2.76448e-52
3.12929e-50
3.32791e-50
-9.64402e-50
-2.50494e-49
1.2451e-49
1.2073e-48
8.80465e-49
-4.07141e-48
-8.57593e-48
6.83736e-48
4.44521e-47
2.59952e-47
-1.54254e-46
-3.02923e-46
2.60539e-46
1.5997e-45
9.87382e-46
-5.36669e-45
-1.11996e-44
7.31242e-45
5.62448e-44
4.63129e-44
-1.68532e-43
-4.24548e-43
9.90439e-44
1.88323e-42
2.27823e-42
-4.4297e-42
-1.57338e-41
-4.96882e-42
5.67061e-41
1.0465e-40
-7.27887e-41
-5.33976e-40
-5.21636e-40
1.35053e-39
4.19836e-39
1.14637e-39
-1.50347e-38
-2.85191e-38
1.43497e-38
1.36996e-37
1.66102e-37
-2.718e-37
-1.10888e-36
-7.72801e-37
3.08471e-36
8.27119e-36
1.96e-36
-2.91405e-35
-5.81249e-35
1.27552e-35
2.49524e-34
3.91554e-34
-2.73816e-34
-2.01218e-33
-2.57288e-33
3.1062e-33
1.56236e-32
1.6836e-32
-2.88361e-32
-1.18509e-31
-1.12492e-31
2.39983e-31
8.86575e-31
7.87423e-31
-1.84749e-30
-6.57568e-30
-5.87206e-30
1.32659e-29
4.83957e-29
4.65871e-29
-8.81065e-29
-3.52147e-28
-3.85824e-28
5.24329e-28
2.51203e-27
3.24696e-27
-2.54843e-27
-1.7324e-26
-2.70542e-26
6.45666e-27
1.13002e-25
2.18249e-25
5.71257e-26
-6.71574e-25
-1.66976e-24
-1.21988e-24
3.35622e-24
1.18327e-23
1.42496e-23
-1.06216e-23
-7.49665e-23
-1.31598e-22
-3.18954e-23
3.95273e-22
1.02159e-21
9.60741e-22
-1.37644e-21
-6.59685e-21
-1.06413e-20
-1.97557e-21
3.25126e-20
8.4332e-20
8.88314e-20
-7.8752e-20
-4.97647e-19
-9.37398e-19
-5.76523e-19
1.80181e-18
6.41414e-18
9.73879e-18
2.411e-18
-2.70166e-17
-7.60267e-17
-1.00727e-16
3.74222e-19
3.38847e-16
8.65826e-16
1.09563e-15
-4.97893e-17
-3.76123e-15
-9.63486e-15
-1.28207e-14
-2.04966e-15
3.65726e-14
1.03664e-13
1.57046e-13
8.37538e-14
-2.82822e-13
-1.03278e-12
-1.88902e-12
-1.83178e-12
1.02415e-12
8.63403e-12
2.05327e-11
2.95112e-11
1.732e-11
-4.42639e-11
-1.78014e-10
-3.6242e-10
-4.7025e-10
-2.11782e-10
8.45776e-10
3.06388e-09
6.19505e-09
8.49378e-09
5.74209e-09
-9.00785e-09
-4.34771e-08
-9.99751e-08
-1.63323e-07
-1.83462e-07
-5.85496e-08
3.6687e-07
1.26275e-06
2.69766e-06
4.40987e-06
5.44996e-06
3.7386e-06
-4.30626e-06
-2.37456e-05
-6.0145e-05
-0.000116846
-0.000189461
-0.000256493
-0.000265109
-0.000111604
0.000383027
0.00150072
0.0036539
0.00740812
0.0134938
0.0228
0.0363455
0.0552212
0.0805058
0.113157
0.153887
0.203042
0.260492
0.325555
0.396981
0.472981
0.551332
0.629533
0.705002
0.775296
0.838318
0.892492
0.936878
0.971224
0.995928
1.01195
1.02066
1.02367
1.02264
1.01911
1.01443
1.0096
1.00533
1.002
0.999727
0.998437
0.997942
0.998002
0.998382
0.998886
0.999374
0.999765
1.00003
1.00017
1.00021
1.00019
1.00014
1.00008
1.00004
1
0.999983
0.999977
0.99998
0.999986
0.999992
0.999997
1
1
1
1
1
1
1
1
1
1
1
1
1
1
1
1
1
1
1
1
1
1
1
1
1
1
1
1
1
1
1
0.999999
0.999997
0.999996
0.999995
0.999996
1
1.00002
1.00006
1.00012
1.00019
1.00026
1.00027
1.00011
0.999617
0.998499
0.996346
0.992592
0.986506
0.9772
0.963654
0.944779
0.919494
0.886843
0.846113
0.796958
0.739508
0.674445
0.603019
0.527019
0.448668
0.370467
0.294998
0.224704
0.161682
0.107508
0.0631218
0.0287765
0.00407182
-0.0119517
-0.0206649
-0.0236734
-0.0226377
-0.0191132
-0.014427
-0.00960268
-0.00533376
-0.00200184
0.000273092
0.00156326
0.0020585
0.00199828
0.00161812
0.00111422
0.000626252
0.000235279
-2.77783e-05
-0.000168109
-0.000211783
-0.000192495
-0.000141991
-8.46394e-05
-3.56139e-05
-1.67053e-06
1.66653e-05
2.25121e-05
2.03564e-05
1.4449e-05
7.94869e-06
2.68668e-06
-6.57419e-07
-2.18826e-06
-2.4058e-06
-1.89772e-06
-1.15157e-06
-4.79069e-07
-2.03561e-08
2.09659e-07
2.64383e-07
2.17866e-07
1.34636e-07
5.67809e-08
3.51085e-09
-2.27253e-08
-2.84593e-08
-2.27683e-08
-1.33481e-08
-4.97493e-09
3.93693e-10
2.73625e-09
2.96105e-09
2.14123e-09
1.09833e-09
2.81589e-10
-1.73701e-10
-3.20414e-10
-2.8137e-10
-1.72084e-10
-6.73933e-11
7.0475e-13
3.00546e-11
3.26081e-11
2.26285e-11
1.06107e-11
1.83049e-12
-2.53096e-12
-3.4894e-12
-2.66543e-12
-1.37705e-12
-3.4956e-13
2.02053e-13
3.57002e-13
2.91137e-13
1.57852e-13
4.55323e-14
-1.68797e-14
-3.58274e-14
-3.00593e-14
-1.64488e-14
-4.80111e-15
1.65109e-15
3.57283e-15
2.95745e-15
1.57395e-15
4.22432e-16
-1.90461e-16
-3.53299e-16
-2.76929e-16
-1.37909e-16
-2.98079e-17
2.33332e-17
3.41448e-17
2.44555e-17
1.08894e-17
1.36225e-18
-2.7573e-18
-3.1587e-18
-2.00405e-18
-7.46645e-19
2.7116e-20
2.99596e-19
2.7341e-19
1.48642e-19
4.04867e-20
-1.57955e-20
-2.93184e-20
-2.16126e-20
-9.56714e-21
-1.14946e-21
2.33466e-21
2.55093e-21
1.51371e-21
4.86606e-22
-8.64856e-23
-2.48005e-22
-1.94262e-22
-8.93424e-23
-1.33305e-23
1.87484e-23
2.13128e-23
1.25861e-23
3.9299e-24
-7.85277e-25
-2.02012e-24
-1.51352e-24
-6.50518e-25
-6.3221e-26
1.61551e-25
1.61492e-25
8.65872e-26
2.16103e-26
-9.82932e-27
-1.55298e-26
-1.01027e-26
-3.58092e-27
2.25259e-28
1.34935e-27
1.07098e-27
4.71606e-28
5.44816e-29
-1.04756e-28
-1.05127e-28
-5.4632e-29
-1.22926e-29
7.00236e-30
9.66625e-30
5.79685e-30
1.76045e-30
-3.57085e-31
-8.39053e-31
-5.75553e-31
-2.11063e-31
7.85812e-33
6.33604e-32
)
;

boundaryField
{
    sides
    {
        type            zeroGradient;
    }
    empty
    {
        type            empty;
    }
}


// ************************************************************************* //
