/*--------------------------------*- C++ -*----------------------------------*\
| =========                 |                                                 |
| \\      /  F ield         | OpenFOAM: The Open Source CFD Toolbox           |
|  \\    /   O peration     | Version:  2312                                  |
|   \\  /    A nd           | Website:  www.openfoam.com                      |
|    \\/     M anipulation  |                                                 |
\*---------------------------------------------------------------------------*/
FoamFile
{
    version     2.0;
    format      ascii;
    arch        "LSB;label=32;scalar=64";
    class       volScalarField;
    location    "0.3";
    object      T;
}
// * * * * * * * * * * * * * * * * * * * * * * * * * * * * * * * * * * * * * //

dimensions      [0 0 0 1 0 0 0];

internalField   nonuniform List<scalar> 
1000
(
0
0
0
0
0
0
0
0
0
0
0
0
0
0
0
0
0
0
0
0
0
0
0
0
0
0
0
0
0
0
0
0
0
0
0
0
0
0
0
0
0
0
0
0
0
0
0
0
0
0
0
0
0
0
0
0
0
0
0
0
0
0
0
0
0
0
0
0
0
0
0
0
0
0
0
0
0
0
0
0
0
0
0
0
0
0
0
0
0
0
0
0
0
0
0
0
0
0
0
0
0
0
0
0
0
0
0
0
0
0
0
0
0
0
0
0
0
0
0
0
0
0
0
0
0
0
0
0
0
0
0
0
0
0
0
0
0
0
0
0
0
0
0
0
0
0
0
0
0
0
0
0
0
0
0
0
0
0
0
0
0
0
0
0
0
0
0
0
0
0
0
0
0
0
0
0
0
0
0
0
0
0
0
0
0
0
0
0
0
0
0
0
0
0
0
0
0
0
0
0
0
0
0
0
0
0
0
0
0
0
0
0
0
0
0
0
0
0
0
0
0
0
0
0
0
0
0
0
0
0
0
0
0
0
0
0
0
0
0
0
0
0
0
0
0
0
0
0
0
0
0
0
0
0
0
0
0
0
0
0
0
0
0
0
0
0
0
0
0
0
0
0
0
0
0
0
0
0
0
0
0
0
0
0
0
0
0
0
0
0
0
0
0
0
0
0
0
0
0
0
0
0
0
0
0
0
0
0
0
0
0
0
0
0
0
0
0
0
0
0
0
0
0
0
0
0
0
0
0
0
0
0
0
0
0
0
0
0
0
0
0
0
0
0
0
0
0
0
0
0
0
0
0
0
0
0
0
0
0
0
0
0
0
0
0
0
0
0
0
0
0
0
0
0
0
0
0
0
0
0
0
0
0
0
0
0
0
0
0
0
0
0
0
0
0
0
0
0
0
0
0
0
0
0
0
0
0
0
0
0
8.01639e-38
-1.13625e-25
9.19918e-20
-5.95571e-17
1.3707e-15
-8.9339e-15
3.67283e-14
-1.29643e-13
4.3259e-13
-1.37918e-12
4.19486e-12
-1.21417e-11
3.33044e-11
-8.60824e-11
2.081e-10
-4.65732e-10
9.50683e-10
-1.72797e-09
2.67266e-09
-3.13467e-09
1.3433e-09
5.97446e-09
-2.00827e-08
3.36226e-08
-2.55442e-08
-4.09031e-08
1.59831e-07
-2.0403e-07
-6.40157e-08
6.83839e-07
-9.47592e-07
-4.05018e-07
3.0652e-06
-2.793e-06
-5.00226e-06
1.19943e-05
2.77839e-06
-3.2288e-05
1.23202e-05
7.47153e-05
-5.58121e-05
-0.000170972
0.000148063
0.000413748
-0.000271983
-0.00102848
0.000161713
0.00239965
0.00137125
-0.00427637
-0.0069768
0.00127154
0.017167
0.0196518
-0.00471674
-0.0505314
-0.0786868
-0.0488525
0.0600755
0.241003
0.456889
0.661466
0.8209
0.923729
0.977461
0.997811
1
1
1
1
1
1
1
1
1
1
1
1
1
1
1
1
1
1
1
1
1
1
1
1
1
1
1
1
1
1
1
1
1
1
1
1
1
1
1
1
1
1
1
1
1
1
1
1
1
1
1
1
1
1
1
1
1
1
1
1
1
1
1
0.999999
1
1
0.999997
1
1
0.999988
0.999998
1.00003
0.999987
0.999924
1.00006
1.00017
0.999846
0.999592
1.00028
1.00103
0.999819
0.997581
0.998636
1.00431
1.007
0.998706
0.9828
0.980356
1.00478
1.0506
1.07866
1.04867
0.939611
0.758646
0.542821
0.338356
0.179024
0.0762587
0.0225499
0.00219559
1.41974e-16
1.4795e-16
1.4824e-16
1.47088e-16
1.43907e-16
1.37572e-16
1.27325e-16
1.13257e-16
9.6394e-17
7.83771e-17
6.09261e-17
4.53857e-17
3.2508e-17
2.24734e-17
1.50537e-17
9.80617e-18
6.23195e-18
3.87383e-18
2.35982e-18
1.41053e-18
8.27841e-19
4.77174e-19
2.70119e-19
1.50141e-19
8.19234e-20
4.38731e-20
2.30575e-20
1.18915e-20
6.01851e-21
2.9897e-21
1.45792e-21
6.98096e-22
3.28314e-22
1.51702e-22
6.88897e-23
3.07556e-23
1.35034e-23
5.83245e-24
2.47908e-24
1.03729e-24
4.27379e-25
1.73445e-25
6.93547e-26
2.73324e-26
1.06191e-26
4.06839e-27
1.53744e-27
5.73222e-28
2.10913e-28
7.6603e-29
2.74693e-29
9.72764e-30
3.40267e-30
1.17592e-30
4.01578e-31
1.35545e-31
4.52274e-32
1.49213e-32
4.86834e-33
1.57108e-33
5.01577e-34
1.58442e-34
4.953e-35
1.53251e-35
4.69395e-36
1.42346e-36
4.27449e-37
1.27122e-37
3.74469e-38
1.09277e-38
3.15951e-39
9.05197e-40
2.57013e-40
7.2329e-41
2.01774e-41
5.58043e-42
1.53028e-42
4.16122e-43
1.1222e-43
3.00166e-44
7.96428e-45
2.09637e-45
5.47482e-46
1.41872e-46
3.6483e-47
9.31094e-48
2.35855e-48
5.93045e-49
1.48033e-49
3.66855e-50
9.02686e-51
2.20556e-51
5.35156e-52
1.28959e-52
3.08656e-53
7.33799e-54
1.73298e-54
4.06593e-55
9.47775e-56
2.19514e-56
5.05199e-57
1.15541e-57
2.6261e-58
5.93223e-59
1.33195e-59
2.97266e-60
6.59509e-61
1.45459e-61
3.18957e-62
6.95378e-63
1.50742e-63
3.24934e-64
6.96516e-65
1.48479e-65
3.14793e-66
6.63788e-67
1.39221e-67
2.90452e-68
6.02781e-69
1.24447e-69
2.55604e-70
5.22318e-71
1.06195e-71
2.14833e-72
4.32455e-73
8.66255e-74
1.72678e-74
3.42557e-75
6.76322e-76
1.32898e-76
2.59923e-77
5.06004e-78
9.80531e-79
1.89141e-79
3.63201e-80
6.9432e-81
1.32143e-81
2.50387e-82
4.72374e-83
8.8732e-84
1.65963e-84
3.09096e-85
5.73251e-86
1.05872e-86
1.94722e-87
3.56669e-88
6.50646e-89
1.18214e-89
2.1392e-90
3.85575e-91
6.92234e-92
1.23794e-92
2.20526e-93
3.91337e-94
6.91806e-95
1.21835e-95
2.13763e-96
3.73656e-97
6.50741e-98
1.12915e-98
1.95215e-99
3.36286e-100
5.7723e-101
9.87292e-102
1.68271e-102
2.85796e-103
4.83718e-104
8.15891e-105
1.37147e-105
2.29756e-106
3.83604e-107
6.38334e-108
1.05869e-108
1.7501e-109
2.88359e-110
4.73581e-111
7.75276e-112
1.26511e-112
2.05788e-113
3.3369e-114
5.39393e-115
8.69197e-116
1.39634e-116
2.23631e-117
3.57068e-118
5.68405e-119
9.02114e-120
1.42748e-120
2.25214e-121
3.54278e-122
5.5568e-123
8.69053e-124
1.35525e-124
2.1074e-125
3.26771e-126
5.05261e-127
7.79058e-128
1.19789e-128
1.8368e-129
2.80875e-130
4.28333e-131
6.51436e-132
9.88083e-133
1.4947e-133
2.25506e-134
3.39327e-135
5.09258e-136
7.62301e-137
1.13813e-137
1.69487e-138
2.51751e-139
3.72996e-140
5.5124e-141
8.12621e-142
1.19496e-142
1.75284e-143
2.56484e-144
3.74385e-145
5.45154e-146
7.91902e-147
1.14757e-147
1.65902e-148
2.39274e-149
3.44281e-150
4.94213e-151
7.07787e-152
1.01131e-152
1.44168e-153
2.0505e-154
2.9098e-155
4.11987e-156
5.82008e-157
8.20359e-158
1.15376e-158
1.61907e-159
2.26706e-160
3.16748e-161
4.41593e-162
6.14318e-163
8.52772e-164
1.18126e-164
1.63283e-165
2.25225e-166
3.10016e-167
4.2584e-168
5.83725e-169
7.98501e-170
1.09007e-170
1.48506e-171
2.01909e-172
2.73964e-173
3.70988e-174
5.01373e-175
6.7624e-176
9.10301e-177
1.22298e-177
1.63985e-178
2.19456e-179
2.93126e-180
3.90776e-181
5.19964e-182
6.90549e-183
9.15368e-184
1.2111e-184
1.5994e-185
2.10827e-186
2.77391e-187
3.643e-188
4.77566e-189
6.24911e-190
8.16238e-191
1.06423e-191
1.38508e-192
1.79945e-193
2.33366e-194
3.02112e-195
3.90426e-196
5.03675e-197
6.48648e-198
8.33908e-199
1.07024e-199
1.3712e-200
1.75381e-201
2.23939e-202
2.8546e-203
3.63273e-204
4.61527e-205
5.85385e-206
7.41257e-207
9.37094e-208
1.18274e-208
1.49034e-209
1.87492e-210
2.35494e-211
2.95312e-212
3.69734e-213
4.62178e-214
5.76824e-215
7.18778e-216
8.94268e-217
1.11087e-217
1.37781e-218
1.70626e-219
2.10976e-220
2.60471e-221
3.21089e-222
3.95217e-223
4.85726e-224
5.9607e-225
7.30391e-226
8.93653e-227
1.0918e-227
1.33191e-228
1.62246e-229
1.97351e-230
2.39705e-231
2.90728e-232
3.52105e-233
4.25832e-234
5.14263e-235
6.20179e-236
7.46856e-237
8.98146e-238
1.07857e-238
1.29345e-239
1.54898e-240
1.85245e-241
2.21232e-242
2.6385e-243
3.14251e-244
3.73773e-245
4.4397e-246
5.26642e-247
6.23876e-248
7.38079e-249
8.72032e-250
1.02894e-250
1.21249e-251
1.42691e-252
1.67707e-253
1.96853e-254
2.30766e-255
2.70176e-256
3.15911e-257
3.68918e-258
4.30273e-259
5.01199e-260
5.83083e-261
6.77497e-262
7.86218e-263
9.11254e-264
1.05487e-264
1.21962e-265
1.40838e-266
1.62436e-267
1.87119e-268
2.15292e-269
2.47409e-270
2.83976e-271
3.25558e-272
3.72786e-273
4.26359e-274
4.87056e-275
5.5574e-276
6.33369e-277
7.21e-278
8.19804e-279
9.3107e-280
1.05622e-280
1.19682e-281
1.35459e-282
1.53142e-283
1.72936e-284
1.9507e-285
2.19788e-286
2.47363e-287
2.78086e-288
3.12279e-289
3.50288e-290
3.92491e-291
4.39297e-292
4.91148e-293
5.48522e-294
6.11934e-295
6.8194e-296
7.59139e-297
8.44172e-298
9.37729e-299
1.04055e-299
1.15342e-300
1.27719e-301
1.41275e-302
1.56107e-303
1.72316e-304
1.90011e-305
2.09307e-306
2.30325e-307
2.53193e-308
2.78047e-309
3.0503e-310
3.34293e-311
3.65993e-312
4.00295e-313
4.37374e-314
4.7741e-315
5.20592e-316
5.67117e-317
6.1719e-318
6.7102e-319
7.28846e-320
7.91493e-321
8.54734e-322
8.89318e-323
9.88131e-324
0
0
0
0
0
0
0
0
0
0
)
;

boundaryField
{
    sides
    {
        type            zeroGradient;
    }
    empty
    {
        type            empty;
    }
}


// ************************************************************************* //
