/*--------------------------------*- C++ -*----------------------------------*\
| =========                 |                                                 |
| \\      /  F ield         | OpenFOAM: The Open Source CFD Toolbox           |
|  \\    /   O peration     | Version:  2312                                  |
|   \\  /    A nd           | Website:  www.openfoam.com                      |
|    \\/     M anipulation  |                                                 |
\*---------------------------------------------------------------------------*/
FoamFile
{
    version     2.0;
    format      ascii;
    arch        "LSB;label=32;scalar=64";
    class       volScalarField;
    location    "3";
    object      T;
}
// * * * * * * * * * * * * * * * * * * * * * * * * * * * * * * * * * * * * * //

dimensions      [0 0 0 1 0 0 0];

internalField   nonuniform List<scalar> 
1000
(
0
0
0
0
0
0
0
0
0
0
0
0
0
0
0
0
0
0
0
0
0
0
0
0
0
0
0
0
0
0
0
0
0
0
0
0
0
0
0
0
0
0
0
0
0
0
0
0
0
0
0
0
0
0
0
0
0
0
0
0
0
0
0
0
0
0
0
0
0
0
0
0
0
0
0
0
0
0
0
0
0
0
0
0
0
0
0
0
0
0
0
0
0
0
0
0
0
0
0
0
0
0
0
0
0
0
0
0
0
0
0
0
0
0
0
0
0
0
0
0
0
0
0
0
0
0
0
0
0
0
0
0
0
0
0
0
0
0
0
0
0
0
0
0
0
0
0
0
0
0
0
0
0
0
0
0
0
0
0
0
0
0
0
0
0
0
0
0
0
0
0
0
0
0
0
0
0
0
0
0
0
0
0
0
0
0
0
0
0
0
0
0
0
0
0
0
0
0
0
0
0
0
0
0
0
0
0
0
0
0
0
0
0
0
0
0
0
0
0
0
0
0
0
0
0
0
0
0
0
0
0
0
0
0
0
0
0
0
0
0
0
0
0
0
0
0
0
0
0
0
0
0
0
0
0
0
0
0
0
0
0
0
0
0
0
0
0
0
0
0
0
0
0
0
0
0
0
0
0
0
0
0
0
0
0
0
0
0
0
0
0
0
0
0
0
0
0
0
0
0
0
0
0
0
0
0
0
0
0
0
0
0
0
0
0
0
0
0
0
0
0
0
0
0
0
0
0
0
0
0
0
0
0
0
0
0
0
0
0
0
0
0
0
0
0
0
0
0
0
0
0
0
0
0
0
0
0
0
0
0
0
0
0
0
0
0
0
0
0
0
0
0
0
0
0
0
0
0
0
0
0
0
0
0
0
0
0
0
0
0
0
0
0
0
0
0
0
0
0
0
0
0
0
0
1.07091e-116
-7.18896e-101
4.3197e-93
-2.50668e-89
-2.40102e-87
-7.61281e-86
1.39346e-84
2.4642e-82
1.31799e-80
4.73041e-79
1.31847e-77
3.03786e-76
5.99523e-75
1.03729e-73
1.59983e-72
2.2273e-71
2.82675e-70
3.29638e-69
3.55504e-68
3.56498e-67
3.33921e-66
2.9327e-65
2.42292e-64
1.88819e-63
1.39115e-62
9.70805e-62
6.42604e-61
4.03871e-60
2.41129e-59
1.36747e-58
7.35964e-58
3.75117e-57
1.80367e-56
8.12414e-56
3.38343e-55
1.26877e-54
4.01602e-54
8.45747e-54
-1.08512e-53
-2.76291e-52
-2.21645e-51
-1.37889e-50
-7.55141e-50
-3.80597e-49
-1.80297e-48
-8.12284e-48
-3.50588e-47
-1.45671e-46
-5.84702e-46
-2.27289e-45
-8.57331e-45
-3.14272e-44
-1.12097e-43
-3.89467e-43
-1.3193e-42
-4.36105e-42
-1.4079e-41
-4.44264e-41
-1.37143e-40
-4.1452e-40
-1.2279e-39
-3.56811e-39
-1.01812e-38
-2.85541e-38
-7.87862e-38
-2.14047e-37
-5.72989e-37
-1.51208e-36
-3.93464e-36
-1.00956e-35
-2.55345e-35
-6.363e-35
-1.56103e-34
-3.76685e-34
-8.93172e-34
-2.07894e-33
-4.74552e-33
-1.06147e-32
-2.3252e-32
-4.98699e-32
-1.04749e-31
-2.15677e-31
-4.36113e-31
-8.68636e-31
-1.7116e-30
-3.35521e-30
-6.58481e-30
-1.30152e-29
-2.60098e-29
-5.25757e-29
-1.07103e-28
-2.18333e-28
-4.41332e-28
-8.75875e-28
-1.68951e-27
-3.13399e-27
-5.52057e-27
-9.07115e-27
-1.34753e-26
-1.68453e-26
-1.35876e-26
9.42668e-27
7.88857e-26
2.42882e-25
5.77713e-25
1.18523e-24
2.16196e-24
3.50434e-24
4.89203e-24
5.26926e-24
2.14289e-24
-9.42367e-24
-3.79427e-23
-9.61287e-23
-1.99528e-22
-3.60266e-22
-5.71091e-22
-7.72818e-22
-7.97148e-22
-2.79093e-22
1.45697e-21
5.51e-21
1.34413e-20
2.70947e-20
4.79521e-20
7.56693e-20
1.05364e-19
1.23294e-19
1.00928e-19
-1.17169e-20
-2.90912e-19
-8.37026e-19
-1.75648e-18
-3.11502e-18
-4.84654e-18
-6.60346e-18
-7.5464e-18
-6.08673e-18
3.92502e-19
1.57254e-17
4.48326e-17
9.27355e-17
1.61761e-16
2.46006e-16
3.24702e-16
3.58001e-16
2.5464e-16
-3.55089e-16
-2.0926e-15
-4.47042e-15
-4.98115e-15
3.12815e-15
1.82466e-14
2.09709e-14
-1.03544e-14
-5.90266e-14
-5.41518e-14
5.14406e-14
1.73641e-13
1.10207e-13
-2.09166e-13
-4.74776e-13
-1.75608e-13
7.12459e-13
1.22303e-12
1.83172e-13
-2.20679e-12
-3.03973e-12
1.32719e-13
6.28292e-12
7.68553e-12
-1.38e-12
-1.72451e-11
-1.95034e-11
4.30713e-12
4.52448e-11
5.17899e-11
-8.08514e-12
-1.13908e-10
-1.4305e-10
-8.41889e-13
2.75847e-10
3.99416e-10
9.40842e-11
-6.195e-10
-1.10063e-09
-5.43377e-10
1.22582e-09
2.89997e-09
2.21555e-09
-1.84153e-09
-7.17269e-09
-7.53599e-09
3.20976e-10
1.48709e-08
2.3309e-08
1.16981e-08
-2.3028e-08
-6.06699e-08
-5.86171e-08
6.3799e-09
1.20838e-07
1.93294e-07
1.23911e-07
-1.29273e-07
-4.60551e-07
-5.69116e-07
-2.28219e-07
6.09224e-07
1.55104e-06
1.67129e-06
4.80211e-07
-2.12099e-06
-4.9191e-06
-5.26074e-06
-1.83158e-06
5.92839e-06
1.48777e-05
1.78848e-05
9.93784e-06
-1.16261e-05
-4.11673e-05
-6.07893e-05
-5.17496e-05
-2.31154e-06
8.6239e-05
0.00018314
0.000223995
0.000161038
-3.97855e-05
-0.00036746
-0.0007198
-0.000891274
-0.00072507
-9.43261e-05
0.00103646
0.00247698
0.0037509
0.00406369
0.00304089
0.000151807
-0.00483161
-0.011503
-0.0186633
-0.0241458
-0.0248819
-0.0197772
-0.00603811
0.0186477
0.0558148
0.105965
0.168444
0.241483
0.322388
0.407853
0.494332
0.578414
0.657148
0.728267
0.790306
0.842607
0.885233
0.918819
0.944393
0.963199
0.976538
0.985646
0.991619
0.995366
0.997604
0.998865
0.999527
0.999843
0.999972
1
1
1
1
1
1
1
1
1
1
1
1
1
1
1
1
1
1
1
1
1
1
1
1
1
1
1
1
1
1
1
1
1
1
0.999999
0.999998
0.999998
1
1
1
1.00001
1
0.999994
0.999985
0.999982
0.99999
1.00001
1.00004
1.00006
1.00005
1
0.999914
0.999817
0.999776
0.99984
1.00004
1.00037
1.00072
1.00089
1.00072
1.00009
0.998963
0.997523
0.99625
0.995938
0.996962
0.999855
1.00484
1.01151
1.01867
1.02414
1.02487
1.01975
1.00599
0.981292
0.944109
0.893944
0.831453
0.758406
0.677498
0.592035
0.505562
0.421489
0.342767
0.271661
0.209635
0.157346
0.114732
0.081155
0.0555882
0.0367881
0.0234542
0.014349
0.00837811
0.0046319
0.00239511
0.00113446
0.000472566
0.000156569
2.77789e-05
1.42597e-16
1.38974e-16
1.37591e-16
1.3433e-16
1.29361e-16
1.23033e-16
1.15698e-16
1.07676e-16
9.92505e-17
9.06639e-17
8.21209e-17
7.37879e-17
6.57955e-17
5.82416e-17
5.11949e-17
4.46984e-17
3.87734e-17
3.34232e-17
2.86367e-17
2.43915e-17
2.06574e-17
1.73981e-17
1.45744e-17
1.21453e-17
1.00696e-17
8.30749e-18
6.82084e-18
5.57409e-18
4.53454e-18
3.67257e-18
2.96167e-18
2.3784e-18
1.90222e-18
1.51536e-18
1.20252e-18
9.50677e-19
7.48827e-19
5.87729e-19
4.59682e-19
3.58308e-19
2.78361e-19
2.15547e-19
1.66375e-19
1.28018e-19
9.82014e-20
7.51012e-20
5.72637e-20
4.35344e-20
3.30007e-20
2.49439e-20
1.88004e-20
1.41301e-20
1.05902e-20
7.91501e-21
5.89924e-21
4.38473e-21
3.25009e-21
2.40247e-21
1.77105e-21
1.30202e-21
9.546e-22
6.97976e-22
5.08951e-22
3.70108e-22
2.6841e-22
1.94126e-22
1.40019e-22
1.00718e-22
7.22502e-23
5.16878e-23
3.68766e-23
2.62378e-23
1.86173e-23
1.31741e-23
9.29686e-24
6.54282e-24
4.59205e-24
3.21411e-24
2.24351e-24
1.56174e-24
1.08418e-24
7.50603e-25
5.18244e-25
3.5684e-25
2.45036e-25
1.67804e-25
1.14603e-25
7.80568e-26
5.30208e-26
3.59174e-26
2.42655e-26
1.63493e-26
1.0986e-26
7.36225e-27
4.92055e-27
3.27983e-27
2.18035e-27
1.44558e-27
9.55866e-28
6.30372e-28
4.14613e-28
2.71981e-28
1.77945e-28
1.16115e-28
7.55694e-29
4.90529e-29
3.17574e-29
2.05065e-29
1.3207e-29
8.48381e-30
5.43564e-30
3.47365e-30
2.21413e-30
1.40767e-30
8.92659e-31
5.64623e-31
3.56225e-31
2.24173e-31
1.40715e-31
8.81046e-32
5.50251e-32
3.42791e-32
2.13014e-32
1.32038e-32
8.16403e-33
5.03535e-33
3.09797e-33
1.90129e-33
1.16399e-33
7.10848e-34
4.33052e-34
2.63172e-34
1.59543e-34
9.64847e-35
5.82082e-35
3.50314e-35
2.10321e-35
1.25968e-35
7.5265e-36
4.48627e-36
2.66772e-36
1.58256e-36
9.36582e-37
5.52971e-37
3.2571e-37
1.91397e-37
1.12206e-37
6.56267e-38
3.82936e-38
2.22925e-38
1.29473e-38
7.50223e-39
4.33706e-39
2.50148e-39
1.43945e-39
8.26413e-40
4.73371e-40
2.70528e-40
1.54252e-40
8.77531e-41
4.98088e-41
2.82076e-41
1.59384e-41
8.98551e-42
5.05434e-42
2.83669e-42
1.5885e-42
8.87551e-43
4.94802e-43
2.75235e-43
1.52762e-43
8.45988e-44
4.67473e-44
2.57746e-44
1.41799e-44
7.78404e-45
4.2637e-45
2.33035e-45
1.2709e-45
6.91609e-46
3.75551e-46
2.03488e-46
1.10021e-46
5.93575e-47
3.19555e-47
1.71667e-47
9.20241e-48
4.92257e-48
2.6276e-48
1.39961e-48
7.43935e-49
3.94591e-49
2.08856e-49
1.10315e-49
5.8145e-50
3.05832e-50
1.60527e-50
8.40833e-51
4.39512e-51
2.29262e-51
1.19343e-51
6.19966e-52
3.214e-52
1.66277e-52
8.58482e-53
4.42327e-53
2.27442e-53
1.16712e-53
5.97698e-54
3.0547e-54
1.55804e-54
7.93078e-55
4.02884e-55
2.04256e-55
1.03348e-55
5.21869e-56
2.63001e-56
1.32279e-56
6.63998e-57
3.32646e-57
1.66319e-57
8.29945e-58
)
;

boundaryField
{
    sides
    {
        type            zeroGradient;
    }
    empty
    {
        type            empty;
    }
}


// ************************************************************************* //
