/*--------------------------------*- C++ -*----------------------------------*\
| =========                 |                                                 |
| \\      /  F ield         | OpenFOAM: The Open Source CFD Toolbox           |
|  \\    /   O peration     | Version:  2312                                  |
|   \\  /    A nd           | Website:  www.openfoam.com                      |
|    \\/     M anipulation  |                                                 |
\*---------------------------------------------------------------------------*/
FoamFile
{
    version     2.0;
    format      ascii;
    arch        "LSB;label=32;scalar=64";
    class       volScalarField;
    location    "4.1";
    object      T;
}
// * * * * * * * * * * * * * * * * * * * * * * * * * * * * * * * * * * * * * //

dimensions      [0 0 0 1 0 0 0];

internalField   nonuniform List<scalar> 
1000
(
0
0
0
0
0
0
0
0
0
0
0
0
0
0
0
0
0
0
0
0
0
0
0
0
0
0
0
0
0
0
0
0
0
0
0
0
0
0
0
0
0
0
0
0
0
0
0
0
0
0
0
0
0
0
0
0
0
0
0
0
0
0
0
0
0
0
0
0
0
0
0
0
0
0
0
0
0
0
0
0
0
0
0
0
0
0
0
0
0
0
0
0
0
0
0
0
0
0
0
0
0
0
0
0
0
0
0
0
0
0
0
0
0
0
0
0
0
0
0
0
0
0
0
0
0
0
0
0
0
0
0
0
0
0
0
0
0
0
0
0
0
0
0
0
0
0
0
0
0
0
0
0
0
0
0
0
0
0
0
0
0
0
0
0
0
0
0
0
0
0
0
0
0
0
0
0
0
0
0
0
0
0
0
0
0
0
0
0
0
0
0
0
0
0
0
0
0
0
0
0
0
0
0
0
0
0
0
0
0
0
0
0
0
0
0
0
0
0
0
0
0
0
0
0
0
0
0
0
0
0
1.63042e-321
1.22686e-319
8.91314e-318
6.44435e-316
4.63905e-314
3.32487e-312
2.3725e-310
1.68544e-308
1.19204e-306
8.39314e-305
5.88311e-303
4.10514e-301
2.85153e-299
1.97173e-297
1.35714e-295
9.29825e-294
6.34113e-292
4.30438e-290
2.90818e-288
1.95565e-286
1.3089e-284
8.71884e-283
5.78011e-281
3.81353e-279
2.50393e-277
1.6361e-275
1.06384e-273
6.8836e-272
4.43212e-270
2.83958e-268
1.81022e-266
1.14824e-264
7.24673e-263
4.55042e-261
2.84281e-259
1.76692e-257
1.09257e-255
6.72095e-254
4.1129e-252
2.50374e-250
1.51614e-248
9.13244e-247
5.47165e-245
3.26077e-243
1.93276e-241
1.13941e-239
6.68049e-238
3.89541e-236
2.2589e-234
1.30265e-232
7.47016e-231
4.25979e-229
2.41539e-227
1.3618e-225
7.63398e-224
4.25484e-222
2.35774e-220
1.29889e-218
7.11371e-217
3.87304e-215
2.09615e-213
1.1277e-211
6.03035e-210
3.20522e-208
1.69324e-206
8.89019e-205
4.63889e-203
2.40553e-201
1.23961e-199
6.34766e-198
3.22984e-196
1.63293e-194
8.20267e-193
4.09377e-191
2.02979e-189
9.99819e-188
4.89228e-186
2.37795e-184
1.14808e-182
5.50552e-181
2.62218e-179
1.24034e-177
5.82656e-176
2.71803e-174
1.25905e-172
5.79106e-171
2.64468e-169
1.19913e-167
5.39775e-166
2.41206e-164
1.06996e-162
4.71114e-161
2.05892e-159
8.93055e-158
3.84432e-156
1.64223e-154
6.9614e-153
2.92805e-151
1.22194e-149
5.05926e-148
2.07805e-146
8.46702e-145
3.42199e-143
1.37174e-141
5.4535e-140
2.15011e-138
8.40613e-137
3.25873e-135
1.25251e-133
4.77273e-132
1.80287e-130
6.75063e-129
2.50535e-127
9.21508e-126
3.35893e-124
1.21321e-122
4.34177e-121
1.53941e-119
5.40698e-118
1.88119e-116
6.48251e-115
2.21231e-113
7.47646e-112
2.50179e-110
8.2883e-109
2.71827e-107
8.82446e-106
2.83532e-104
9.01543e-103
2.83656e-101
8.8301e-100
2.71931e-98
8.28352e-97
2.49564e-95
7.43537e-94
2.19039e-92
6.37941e-91
1.83662e-89
5.22608e-88
1.46957e-86
4.08317e-85
1.12081e-83
3.03896e-82
8.13786e-81
2.15187e-79
5.61784e-78
1.44776e-76
3.68232e-75
9.242e-74
2.28849e-72
5.58969e-71
1.34647e-69
3.19809e-68
7.48821e-67
1.72809e-65
3.9297e-64
8.80361e-63
1.94253e-61
4.22063e-60
9.02778e-59
1.9005e-57
3.93662e-56
8.02101e-55
1.60717e-53
3.1659e-52
6.12917e-51
1.16585e-49
2.17808e-48
3.99536e-47
7.1934e-46
1.27073e-44
2.20166e-43
3.73987e-42
6.22578e-41
1.01527e-39
1.62116e-38
2.53356e-37
3.87335e-36
5.78998e-35
8.45816e-34
1.20683e-32
1.68087e-31
2.28395e-30
3.0257e-29
3.90539e-28
4.90795e-27
6.00087e-26
7.13296e-25
8.23592e-24
9.22921e-23
1.00283e-21
1.05556e-20
1.07516e-19
1.05859e-18
1.0063e-17
9.22434e-17
8.14253e-16
6.91151e-15
5.63249e-14
4.39959e-13
3.28791e-12
2.34621e-11
1.59524e-10
1.03104e-09
6.31852e-09
3.66117e-08
1.99964e-07
1.02596e-06
4.92629e-06
2.20443e-05
9.15043e-05
0.000350513
0.00123193
0.00394755
0.011453
0.0298637
0.0694581
0.143087
0.259703
0.414669
0.585331
0.740297
0.856913
0.930542
0.970136
0.988547
0.996052
0.998768
0.999649
0.999908
0.999978
0.999995
0.999999
1
1
1
1
1
1
1
1
1
1
1
1
1
1
1
1
1
1
1
1
1
1
1
1
1
1
1
1
1
1
1
1
1
1
1
1
1
1
1
1
1
1
1
1
1
1
1
1
1
1
1
1
1
1
1
1
1
1
1
1
1
1
1
1
1
1
1
1
1
1
1
1
1
1
0.999999
0.999995
0.999978
0.999908
0.999649
0.998768
0.996052
0.988547
0.970136
0.930542
0.856913
0.740297
0.585331
0.414669
0.259703
0.143087
0.0694581
0.0298637
0.011453
0.00394755
0.00123193
0.000350513
9.15043e-05
2.20443e-05
4.92629e-06
1.02596e-06
1.99964e-07
3.66117e-08
6.31852e-09
1.03104e-09
1.59524e-10
2.34621e-11
3.28791e-12
4.39959e-13
5.63249e-14
6.91151e-15
8.14253e-16
9.22434e-17
1.0063e-17
1.05859e-18
1.07516e-19
1.05556e-20
1.00283e-21
9.22921e-23
8.23592e-24
7.13296e-25
6.00087e-26
4.90795e-27
3.90539e-28
3.0257e-29
2.28395e-30
1.68087e-31
1.20683e-32
8.45816e-34
5.78998e-35
3.87335e-36
2.53356e-37
1.62116e-38
1.01527e-39
6.22578e-41
3.73987e-42
2.20166e-43
1.27073e-44
7.1934e-46
3.99536e-47
2.17808e-48
1.16585e-49
6.12917e-51
3.1659e-52
1.60717e-53
8.02101e-55
3.93662e-56
1.9005e-57
9.02778e-59
4.22063e-60
1.94253e-61
8.80361e-63
3.9297e-64
1.72809e-65
7.48821e-67
3.19809e-68
1.34647e-69
5.58969e-71
2.28849e-72
9.242e-74
3.68232e-75
1.44776e-76
5.61784e-78
2.15187e-79
8.13786e-81
3.03896e-82
1.12081e-83
4.08317e-85
1.46957e-86
5.22608e-88
1.83662e-89
6.37941e-91
2.19039e-92
7.43537e-94
2.49564e-95
8.28352e-97
2.71931e-98
8.8301e-100
2.83656e-101
9.01543e-103
2.83532e-104
8.82446e-106
2.71827e-107
8.2883e-109
2.50179e-110
7.47646e-112
2.21231e-113
6.48251e-115
1.88119e-116
5.40698e-118
1.53941e-119
4.34177e-121
1.21321e-122
3.35893e-124
9.21508e-126
2.50535e-127
6.75063e-129
1.80287e-130
4.77273e-132
1.25251e-133
3.25873e-135
8.40613e-137
2.15011e-138
5.4535e-140
1.37174e-141
3.42199e-143
8.46702e-145
2.07805e-146
5.05926e-148
1.22194e-149
2.92805e-151
6.9614e-153
1.64223e-154
3.84432e-156
8.93055e-158
2.05892e-159
4.71114e-161
1.06996e-162
2.41206e-164
5.39775e-166
1.19913e-167
2.64468e-169
5.79106e-171
1.25905e-172
2.71803e-174
5.82656e-176
1.24034e-177
2.62218e-179
5.50552e-181
1.14808e-182
2.37795e-184
4.89228e-186
9.99819e-188
2.02979e-189
4.09377e-191
8.20267e-193
1.63293e-194
3.22984e-196
6.34766e-198
1.23961e-199
2.40553e-201
4.63889e-203
8.89019e-205
1.69324e-206
3.20522e-208
6.03035e-210
1.1277e-211
2.09615e-213
3.87304e-215
7.11371e-217
1.29889e-218
2.35774e-220
4.25484e-222
7.63398e-224
1.3618e-225
2.41539e-227
4.25979e-229
7.47016e-231
1.30265e-232
2.2589e-234
3.89541e-236
6.68049e-238
1.13941e-239
1.93276e-241
3.26077e-243
5.47165e-245
9.13244e-247
1.51614e-248
2.50374e-250
4.1129e-252
6.72095e-254
1.09257e-255
1.76692e-257
2.84281e-259
4.55042e-261
7.24673e-263
1.14824e-264
1.81022e-266
2.83958e-268
4.43212e-270
6.8836e-272
1.06384e-273
1.6361e-275
2.50393e-277
3.81353e-279
5.78011e-281
8.71884e-283
1.3089e-284
1.95565e-286
2.90818e-288
4.30438e-290
6.34113e-292
9.29825e-294
1.35714e-295
1.97173e-297
2.85153e-299
4.10514e-301
5.88311e-303
8.39314e-305
1.19204e-306
1.68544e-308
2.3725e-310
3.32487e-312
4.63905e-314
6.44435e-316
8.91315e-318
1.22686e-319
1.63042e-321
0
0
0
0
0
0
0
0
0
0
0
0
0
0
0
0
0
0
0
0
0
0
0
0
0
0
0
0
0
0
0
0
0
0
0
0
0
0
0
0
0
0
0
0
0
0
0
0
0
0
0
0
0
0
0
0
0
0
0
0
0
0
0
0
0
0
0
0
0
0
0
0
0
0
0
0
0
0
0
0
0
0
0
0
0
0
0
0
0
0
0
0
0
0
0
0
0
0
0
0
0
0
0
0
0
0
0
0
0
0
0
0
0
0
0
0
0
0
0
0
0
0
0
0
0
0
0
0
0
0
0
0
0
0
0
0
0
0
0
0
0
0
0
0
0
0
0
0
0
0
0
0
0
0
0
0
0
0
0
0
0
0
0
0
0
0
0
0
0
0
0
0
0
0
0
0
0
0
0
0
0
0
0
0
0
0
0
0
0
0
0
0
0
0
0
0
0
0
0
0
0
0
0
0
0
0
0
0
0
0
0
0
0
0
0
0
0
0
0
0
0
0
0
0
0
0
0
0
0
0
)
;

boundaryField
{
    sides
    {
        type            zeroGradient;
    }
    empty
    {
        type            empty;
    }
}


// ************************************************************************* //
