/*--------------------------------*- C++ -*----------------------------------*\
| =========                 |                                                 |
| \\      /  F ield         | OpenFOAM: The Open Source CFD Toolbox           |
|  \\    /   O peration     | Version:  2312                                  |
|   \\  /    A nd           | Website:  www.openfoam.com                      |
|    \\/     M anipulation  |                                                 |
\*---------------------------------------------------------------------------*/
FoamFile
{
    version     2.0;
    format      ascii;
    arch        "LSB;label=32;scalar=64";
    class       volScalarField;
    location    "1.8";
    object      T;
}
// * * * * * * * * * * * * * * * * * * * * * * * * * * * * * * * * * * * * * //

dimensions      [0 0 0 1 0 0 0];

internalField   nonuniform List<scalar> 
1000
(
0
0
0
0
0
0
0
0
0
0
0
0
0
0
0
0
0
0
0
0
0
0
0
0
0
0
0
0
0
0
0
0
0
0
0
0
0
0
0
0
0
0
0
0
0
0
0
0
0
0
0
0
0
0
0
0
0
0
0
0
0
0
0
0
0
0
0
0
0
0
0
0
0
0
0
0
0
0
0
0
0
0
0
0
0
0
0
0
0
0
0
0
0
0
0
0
0
0
0
0
0
0
0
0
0
0
0
0
0
0
0
0
0
0
0
0
0
0
0
0
0
0
0
0
0
0
0
0
0
0
0
0
0
0
0
0
0
0
0
0
0
0
0
0
0
0
0
0
0
0
0
0
0
0
0
0
0
0
0
0
0
0
0
0
0
0
0
0
0
0
0
0
0
0
0
0
0
0
0
0
0
0
0
0
0
0
0
0
0
0
0
0
0
0
0
0
0
0
0
0
0
0
0
0
0
0
0
0
0
0
0
0
0
0
0
0
0
0
0
0
0
0
0
0
0
0
0
0
0
0
0
0
0
0
0
0
0
0
0
0
0
0
0
0
0
0
0
0
0
0
0
0
0
0
0
0
0
0
0
0
0
0
0
0
0
0
0
0
0
0
0
0
0
0
0
0
0
0
0
0
0
0
0
0
0
0
0
0
0
0
0
0
0
0
0
0
0
0
0
0
0
0
0
0
0
0
0
0
0
0
0
0
0
0
0
0
0
0
0
0
0
0
0
0
0
0
0
0
0
0
0
0
0
0
0
0
0
0
0
0
0
0
0
0
0
0
0
0
0
0
0
0
0
0
0
0
0
0
0
0
0
0
0
0
0
0
0
0
0
0
0
0
0
0
0
0
0
0
0
0
0
0
0
0
0
0
0
0
0
0
0
0
0
0
0
0
0
0
0
0
0
0
0
0
1.97836e-82
-1.32806e-66
7.98008e-59
-4.69169e-55
-8.76107e-54
6.25823e-52
3.83122e-50
1.11858e-48
2.23899e-47
3.44892e-46
4.33327e-45
4.59886e-44
4.21802e-43
3.39495e-42
2.42171e-41
1.53932e-40
8.72691e-40
4.39117e-39
1.93174e-38
7.14687e-38
1.97104e-37
1.68258e-37
-2.63139e-36
-2.53312e-35
-1.58912e-34
-8.30837e-34
-3.88354e-33
-1.67365e-32
-6.75539e-32
-2.57409e-31
-9.28913e-31
-3.17554e-30
-1.02696e-29
-3.13563e-29
-9.02504e-29
-2.44858e-28
-6.28264e-28
-1.53882e-27
-3.66674e-27
-8.75708e-27
-2.16548e-26
-5.62983e-26
-1.51393e-25
-4.05282e-25
-1.0369e-24
-2.44747e-24
-5.14393e-24
-9.11312e-24
-1.17843e-23
-3.40303e-24
4.02554e-23
1.6216e-22
4.03568e-22
7.05084e-22
6.32353e-22
-1.18365e-21
-7.86393e-21
-2.4795e-20
-5.80022e-20
-1.06329e-19
-1.40869e-19
-6.51112e-20
3.41717e-19
1.46592e-18
3.78838e-18
7.50811e-18
1.15868e-17
1.19897e-17
-1.07516e-18
-4.64153e-17
-1.52775e-16
-3.37108e-16
-5.41731e-16
-3.31396e-16
1.83884e-15
4.78285e-15
9.21285e-16
-1.32024e-14
-1.34991e-14
2.21028e-14
4.55457e-14
-2.2015e-14
-1.13047e-13
-2.01906e-14
2.38454e-13
1.82331e-13
-4.09758e-13
-6.24285e-13
4.46144e-13
1.62974e-12
1.42966e-13
-3.29009e-12
-2.66118e-12
5.02037e-12
9.13848e-12
-2.92801e-12
-2.15098e-11
-1.17874e-11
3.5123e-11
5.32441e-11
-2.27951e-11
-1.30313e-10
-7.55166e-11
1.95974e-10
3.3597e-10
-5.6564e-11
-7.44069e-10
-6.4432e-10
7.98167e-10
2.13827e-09
7.96381e-10
-3.45655e-09
-5.36507e-09
3.93757e-10
1.15473e-08
1.23639e-08
-6.52923e-09
-3.3137e-08
-2.87152e-08
2.65975e-08
9.10198e-08
6.9441e-08
-8.14716e-08
-2.45495e-07
-1.84153e-07
2.06498e-07
6.46114e-07
5.45467e-07
-3.9896e-07
-1.67577e-06
-1.7089e-06
3.66794e-07
3.93791e-06
5.3428e-06
1.54595e-06
-7.56037e-06
-1.52492e-05
-1.16846e-05
7.76548e-06
3.58706e-05
4.63631e-05
1.89987e-05
-5.13031e-05
-0.000129372
-0.000137218
-3.23903e-05
0.000189992
0.000426179
0.000456495
0.000169328
-0.000490661
-0.00129882
-0.00170523
-0.00124468
0.000381417
0.00305173
0.0058227
0.00689025
0.0050653
-0.000710744
-0.010542
-0.0227195
-0.033253
-0.0360925
-0.0281527
-0.00487025
0.0373793
0.0998193
0.181014
0.277061
0.382249
0.490024
0.594019
0.688923
0.771052
0.838548
0.891248
0.930318
0.957773
0.976002
0.987379
0.993997
0.997535
0.999224
0.99989
1
1
1
1
1
1
1
1
1
1
1
1
1
1
1
1
1
1
1
1
1
1
1
1
1
1
1
1
1
1
1
1
1
1
1
1
1
1
1
1
1
0.999999
0.999999
1
1
1
1
0.999996
0.999995
0.999998
1.00001
1.00002
1.00001
0.999992
0.999964
0.999954
0.999981
1.00005
1.00013
1.00014
1.00003
0.999811
0.999575
0.999545
0.999833
1.00049
1.0013
1.0017
1.00124
0.999615
0.996947
0.994179
0.993114
0.994942
1.00072
1.01055
1.02272
1.03325
1.03607
1.02811
1.0048
0.962527
0.900064
0.818852
0.722797
0.617611
0.509845
0.405866
0.310982
0.228873
0.161396
0.108713
0.0696562
0.0422113
0.023989
0.0126163
0.00600065
0.0024647
0.000775642
0.000110273
3.65141e-16
3.63923e-16
3.62507e-16
3.5783e-16
3.47768e-16
3.30646e-16
3.06059e-16
2.75196e-16
2.40474e-16
2.04752e-16
1.70554e-16
1.39611e-16
1.12788e-16
9.02496e-17
7.17161e-17
5.66947e-17
4.46343e-17
3.50121e-17
2.73706e-17
2.13251e-17
1.6559e-17
1.28146e-17
9.88304e-18
7.59582e-18
5.81757e-18
4.43987e-18
3.37628e-18
2.55813e-18
1.93105e-18
1.45221e-18
1.08793e-18
8.1187e-19
6.03479e-19
4.46794e-19
3.2946e-19
2.41953e-19
1.76961e-19
1.28892e-19
9.34889e-20
6.7526e-20
4.85676e-20
3.47836e-20
2.48053e-20
1.76136e-20
1.24531e-20
8.76652e-21
6.14451e-21
4.28799e-21
2.97936e-21
2.06105e-21
1.41956e-21
9.73445e-22
6.64606e-22
4.51765e-22
3.05743e-22
2.06016e-22
1.38212e-22
9.23206e-23
6.1399e-23
4.06575e-23
2.68066e-23
1.75983e-23
1.15036e-23
7.48756e-24
4.85284e-24
3.1319e-24
2.01273e-24
1.28806e-24
8.20862e-25
5.20945e-25
3.2924e-25
2.07223e-25
1.29891e-25
8.10853e-26
5.04123e-26
3.12154e-26
1.92508e-26
1.18245e-26
7.23405e-27
4.40807e-27
2.67543e-27
1.61742e-27
9.73971e-28
5.84209e-28
3.49057e-28
2.07748e-28
1.23168e-28
7.27422e-29
4.27964e-29
2.50823e-29
1.46445e-29
8.51788e-30
4.93569e-30
2.84923e-30
1.63862e-30
9.38867e-31
5.35935e-31
3.04795e-31
1.72701e-31
9.74952e-32
5.48372e-32
3.0731e-32
1.71591e-32
9.54622e-33
5.2917e-33
2.92275e-33
1.60851e-33
8.82063e-34
4.81973e-34
2.62422e-34
1.42375e-34
7.6972e-35
4.14668e-35
2.22609e-35
1.19087e-35
6.34849e-36
3.37261e-36
1.78549e-36
9.41999e-37
4.95277e-37
2.59512e-37
1.35514e-37
7.05227e-38
3.65765e-38
1.89063e-38
9.73977e-39
5.00072e-39
2.55896e-39
1.30511e-39
6.6342e-40
3.36119e-40
1.69732e-40
8.54298e-41
4.28581e-41
2.14308e-41
1.06815e-41
5.30667e-42
2.6279e-42
1.29717e-42
6.38259e-43
3.13047e-43
1.53053e-43
7.45926e-44
3.62392e-44
1.75508e-44
8.47329e-45
4.07804e-45
1.95659e-45
9.35837e-46
4.46231e-46
2.1212e-46
1.00525e-46
4.74938e-47
2.23706e-47
1.05051e-47
4.91828e-48
2.29571e-48
1.06836e-48
4.957e-49
2.29312e-49
1.05766e-49
4.86386e-50
2.23016e-50
1.01957e-50
4.64756e-51
2.11236e-51
9.57307e-52
4.3259e-52
1.94917e-52
8.75742e-53
3.92336e-53
1.75268e-53
7.80749e-54
3.4681e-54
1.53619e-54
6.78544e-55
2.98878e-55
1.3128e-55
5.75034e-56
2.5118e-56
1.09415e-56
4.75307e-57
2.05911e-57
8.8961e-58
3.83297e-58
1.647e-58
7.05792e-59
3.01641e-59
1.28569e-59
5.4654e-60
2.31712e-60
9.79765e-61
4.13185e-61
1.73789e-61
7.29048e-62
3.05037e-62
1.27296e-62
5.29844e-63
2.19965e-63
9.10831e-64
3.76186e-64
1.54972e-64
6.36784e-65
2.6099e-65
1.06697e-65
4.35092e-66
1.76976e-66
7.18049e-67
2.90607e-67
1.1732e-67
4.72453e-68
1.89787e-68
7.60502e-69
3.03993e-69
1.21216e-69
4.82163e-70
1.91323e-70
7.57327e-71
2.99053e-71
1.17805e-71
4.62947e-72
1.81492e-72
7.09815e-73
2.76947e-73
1.07799e-73
4.18607e-74
1.6217e-74
6.26778e-75
2.41678e-75
9.29704e-76
3.56813e-76
1.36624e-76
5.21924e-77
1.98923e-77
7.5642e-78
2.86976e-78
1.08626e-78
4.10235e-79
1.54577e-79
5.81129e-80
2.17982e-80
8.15813e-81
3.04639e-81
1.13504e-81
4.21955e-82
1.56515e-82
5.79274e-83
2.13921e-83
7.88252e-84
2.89817e-84
1.06324e-84
3.89218e-85
1.4217e-85
5.18182e-86
1.88459e-86
6.83938e-87
2.47675e-87
8.94991e-88
3.22721e-88
1.16121e-88
4.16938e-89
1.49387e-89
5.34121e-90
1.90569e-90
6.78505e-91
2.41072e-91
8.5474e-92
3.02426e-92
1.06783e-92
3.76263e-93
1.32307e-93
4.64284e-94
1.6259e-94
5.68223e-95
1.98179e-95
6.89789e-96
2.39605e-96
8.30611e-97
2.8736e-97
9.92161e-98
3.41877e-98
1.17568e-98
4.03504e-99
1.38211e-99
4.72477e-100
1.61198e-100
5.48892e-101
1.86535e-101
6.32683e-102
2.14173e-102
7.23599e-103
2.44e-103
8.21187e-104
2.7584e-104
9.24776e-105
3.09445e-105
1.03348e-105
3.44501e-106
1.14618e-106
3.80622e-107
1.26157e-107
4.17362e-108
1.37815e-108
4.5422e-109
1.49425e-109
4.90649e-110
1.60809e-110
5.26073e-111
1.71782e-111
5.59898e-112
1.82155e-112
)
;

boundaryField
{
    sides
    {
        type            zeroGradient;
    }
    empty
    {
        type            empty;
    }
}


// ************************************************************************* //
