/*--------------------------------*- C++ -*----------------------------------*\
| =========                 |                                                 |
| \\      /  F ield         | OpenFOAM: The Open Source CFD Toolbox           |
|  \\    /   O peration     | Version:  2312                                  |
|   \\  /    A nd           | Website:  www.openfoam.com                      |
|    \\/     M anipulation  |                                                 |
\*---------------------------------------------------------------------------*/
FoamFile
{
    version     2.0;
    format      ascii;
    arch        "LSB;label=32;scalar=64";
    class       volScalarField;
    location    "0.7";
    object      T;
}
// * * * * * * * * * * * * * * * * * * * * * * * * * * * * * * * * * * * * * //

dimensions      [0 0 0 1 0 0 0];

internalField   nonuniform List<scalar> 
1000
(
0
0
0
0
0
0
0
0
0
0
0
0
0
0
0
0
0
0
0
0
0
0
0
0
0
0
0
0
0
0
0
0
0
0
0
0
0
0
0
0
0
0
0
0
0
0
0
0
0
0
0
0
0
0
0
0
0
0
0
0
0
0
0
0
0
0
0
0
0
0
0
0
0
0
0
0
0
0
0
0
0
0
0
0
0
0
0
0
0
0
0
0
0
0
0
0
0
0
0
0
0
0
0
0
0
0
0
0
0
0
0
0
0
0
0
0
0
0
0
0
0
0
0
0
0
0
0
0
0
0
0
0
0
0
0
0
0
0
0
0
0
0
0
0
0
0
0
0
0
0
0
0
0
0
0
0
0
0
0
0
0
0
0
0
0
0
0
0
0
0
0
0
0
0
0
0
0
0
0
0
0
0
0
0
0
0
0
0
0
0
0
0
0
0
0
0
0
0
0
0
0
0
0
0
0
0
0
0
0
0
0
0
0
0
0
0
0
0
0
0
0
0
0
0
0
0
0
0
0
0
0
0
0
0
0
0
0
0
0
0
0
0
0
0
0
0
0
0
0
0
0
0
0
0
0
0
0
0
0
0
0
0
0
0
0
0
0
0
0
0
0
0
0
0
0
0
0
0
0
0
0
0
0
0
0
0
0
0
0
0
0
0
0
0
0
0
0
0
0
0
0
0
0
0
0
0
0
0
0
0
0
0
0
0
0
0
0
0
0
0
0
0
0
0
0
0
0
0
0
0
0
0
0
0
0
0
0
0
0
0
0
0
0
0
0
0
0
0
0
0
0
0
0
0
0
0
0
0
0
0
0
0
0
0
0
0
0
0
0
0
0
0
0
0
0
0
0
0
0
0
0
0
0
0
0
0
0
0
0
0
0
0
0
0
0
0
0
0
0
0
0
0
0
0
5.09696e-51
-3.42149e-35
2.05593e-27
-1.22313e-23
6.25441e-22
2.219e-21
-2.92168e-21
4.05747e-21
-6.21074e-20
-1.67332e-18
-5.758e-18
1.79288e-17
9.96664e-17
-3.00178e-16
-5.80206e-16
2.71986e-15
-1.95568e-15
-6.69385e-15
1.75186e-14
-9.51612e-15
-3.44296e-14
8.25369e-14
-3.89647e-14
-1.63141e-13
3.46949e-13
-5.8142e-14
-8.39222e-13
1.30445e-12
5.2236e-13
-4.00762e-12
3.30407e-12
6.67678e-12
-1.50393e-11
-2.1849e-12
3.99576e-11
-3.07639e-11
-7.50653e-11
1.36128e-10
8.77316e-11
-3.93071e-10
2.14978e-11
9.45547e-10
-5.46617e-10
-2.03034e-09
2.19896e-09
4.0371e-09
-6.52072e-09
-7.93047e-09
1.64501e-08
1.70288e-08
-3.9181e-08
-3.89097e-08
8.86836e-08
9.63433e-08
-1.82448e-07
-2.58312e-07
3.29995e-07
6.99754e-07
-4.83351e-07
-1.73537e-06
1.96373e-07
3.89586e-06
1.86301e-06
-7.30874e-06
-8.86243e-06
8.30673e-06
2.57408e-05
5.11834e-06
-5.02284e-05
-5.74992e-05
4.05215e-05
0.000163634
0.000106659
-0.000202832
-0.000468673
-0.000216074
0.000646857
0.00133919
0.000739691
-0.00150154
-0.00383111
-0.00340856
0.00137307
0.00916361
0.0138621
0.00923484
-0.00781645
-0.0339311
-0.0557341
-0.0548247
-0.0211598
0.0548917
0.172011
0.318595
0.476569
0.627057
0.755413
0.853953
0.921993
0.963938
0.98661
0.996876
0.999908
1
1
1
1
1
1
1
1
1
1
1
1
1
1
1
1
1
1
1
1
1
1
1
1
1
1
1
1
1
1
1
1
1
1
1
1
1
1
1
1
1
1
1
1
1
1
1
1
1
1
1
1
1
1
0.999999
1
1
1
0.999996
0.999998
1.00001
1.00001
0.999992
0.999974
0.999995
1.00005
1.00006
0.999958
0.999835
0.999894
1.00021
1.00047
1.00022
0.999352
0.998657
0.999257
1.0015
1.00383
1.00341
0.998625
0.990838
0.986147
0.990784
1.00784
1.03395
1.05572
1.05477
1.02104
0.944928
0.827774
0.681185
0.523236
0.372792
0.244484
0.145987
0.0779776
0.0360516
0.0133885
0.00312468
9.26205e-05
1.43624e-12
1.15219e-13
8.74328e-16
2.57305e-16
2.50259e-16
2.31087e-16
2.01226e-16
1.67141e-16
1.34669e-16
1.06676e-16
8.36418e-17
6.4989e-17
4.99575e-17
3.79144e-17
2.837e-17
2.09203e-17
1.52063e-17
1.09011e-17
7.71294e-18
5.38969e-18
3.72196e-18
2.54137e-18
1.71649e-18
1.14722e-18
7.58966e-19
4.97138e-19
3.22486e-19
2.07208e-19
1.31899e-19
8.31901e-20
5.19937e-20
3.22047e-20
1.977e-20
1.20292e-20
7.25482e-21
4.33693e-21
2.56988e-21
1.50945e-21
8.78832e-22
5.07192e-22
2.90149e-22
1.64534e-22
9.24872e-23
5.15353e-23
2.84666e-23
1.55878e-23
8.4618e-24
4.55394e-24
2.42983e-24
1.28542e-24
6.74238e-25
3.50675e-25
1.8086e-25
9.25009e-26
4.69183e-26
2.36023e-26
1.17763e-26
5.82817e-27
2.86121e-27
1.39344e-27
6.73248e-28
3.22728e-28
1.53497e-28
7.24429e-29
3.39272e-29
1.57684e-29
7.2734e-30
3.32988e-30
1.51317e-30
6.82563e-31
3.05647e-31
1.35878e-31
5.99725e-32
2.62821e-32
1.14366e-32
4.9419e-33
2.12066e-33
9.03772e-34
3.82543e-34
1.60828e-34
6.71629e-35
2.78617e-35
1.14821e-35
4.70102e-36
1.91226e-36
7.72877e-37
3.10388e-37
1.23866e-37
4.91222e-38
1.93599e-38
7.58318e-39
2.95219e-39
1.14236e-39
4.39389e-40
1.67998e-40
6.38545e-41
2.41284e-41
9.06439e-42
3.38563e-42
1.25734e-42
4.64298e-43
1.70487e-43
6.22525e-44
2.26053e-44
8.16344e-45
2.93198e-45
1.04736e-45
3.72126e-46
1.31512e-46
4.62316e-47
1.61669e-47
5.62403e-48
1.94633e-48
6.7012e-49
2.29546e-49
7.82322e-50
2.65287e-50
8.9511e-51
3.00527e-51
1.00404e-51
3.33807e-52
1.10441e-52
3.63643e-53
1.19162e-53
3.88633e-54
1.26151e-54
4.07574e-55
1.31069e-55
4.19553e-56
1.33684e-56
4.24026e-57
1.33887e-57
4.20853e-58
1.31699e-58
4.10304e-59
1.27267e-59
3.93027e-60
1.20848e-60
3.69982e-61
1.12786e-61
3.42357e-62
1.03481e-62
3.11469e-63
9.33576e-64
2.78663e-64
8.28352e-65
2.45227e-65
7.23017e-66
2.12309e-66
6.20926e-67
1.80872e-67
5.24777e-68
1.51657e-68
4.36557e-69
1.25177e-69
3.57537e-70
1.01728e-70
2.88334e-71
8.14134e-72
2.29007e-72
6.4175e-73
1.79166e-73
4.98345e-74
1.38101e-74
3.81298e-75
1.04892e-75
2.87505e-76
7.8519e-77
2.1367e-77
5.79375e-78
1.56543e-78
4.21475e-79
1.1308e-79
3.02329e-80
8.05502e-81
2.13872e-81
5.6591e-82
1.49231e-82
3.92188e-83
1.02722e-83
2.68146e-84
6.97637e-85
1.80902e-85
4.67546e-86
1.20441e-86
3.09249e-87
7.91458e-88
2.01903e-88
5.13406e-89
1.30134e-89
3.28803e-90
8.28145e-91
2.07926e-91
5.20418e-92
1.2985e-92
3.22986e-93
8.00917e-94
1.97997e-94
4.87981e-95
1.19903e-95
2.93727e-96
7.17385e-97
1.74688e-97
4.24112e-98
1.02663e-98
2.4778e-99
5.96275e-100
1.43074e-100
3.42306e-101
8.1661e-102
1.94253e-102
4.60764e-103
1.08982e-103
2.5704e-104
6.0454e-105
1.41785e-105
3.31609e-106
7.7342e-107
1.79889e-107
4.17255e-108
9.65181e-109
2.22656e-109
5.1225e-110
1.17533e-110
2.68949e-111
6.13793e-112
1.39707e-112
3.1715e-113
7.18072e-114
1.62156e-114
3.65228e-115
8.20477e-116
1.83843e-116
4.10875e-117
9.15924e-118
2.03658e-118
4.51691e-119
9.99274e-120
2.20513e-120
4.85398e-121
1.06581e-121
2.33443e-122
5.10047e-123
1.11166e-123
2.41697e-124
5.24217e-125
1.13422e-125
2.44813e-126
5.2714e-127
1.13234e-127
2.42658e-128
5.18778e-129
1.10647e-129
2.35439e-130
4.99804e-131
1.05854e-131
2.23669e-132
4.71519e-133
9.91729e-134
2.08109e-134
4.35711e-135
9.10159e-136
1.89694e-136
3.94467e-137
8.18452e-138
1.69436e-138
3.49985e-139
7.21327e-140
1.48339e-140
3.04386e-141
6.23222e-142
1.27325e-142
2.59563e-143
5.27999e-144
1.07174e-144
2.17076e-145
4.3874e-146
8.84871e-147
1.78087e-147
3.57659e-148
7.16792e-149
1.43353e-149
2.861e-150
5.69805e-151
1.1325e-151
2.24623e-152
4.4461e-153
8.78249e-154
1.7313e-154
3.40602e-155
6.6872e-156
1.3103e-156
2.56226e-157
5.00049e-158
9.73952e-159
1.89323e-159
3.67293e-160
7.11162e-161
1.37428e-161
2.65055e-162
5.10214e-163
9.80233e-164
1.87962e-164
3.5973e-165
6.87151e-166
1.31009e-166
2.49303e-167
4.73512e-168
8.97671e-169
1.69859e-169
3.20811e-170
6.04784e-171
1.13801e-171
2.13742e-172
4.00712e-173
7.49859e-174
1.40066e-174
2.61153e-175
4.86037e-176
9.0294e-177
1.67443e-177
3.09952e-178
5.72726e-179
1.05639e-179
1.94506e-180
3.57498e-181
6.55916e-182
1.20133e-182
2.19641e-183
4.00876e-184
7.30385e-185
1.32844e-185
2.41204e-186
4.37199e-187
7.91101e-188
1.42904e-188
2.57701e-189
4.63932e-190
8.33795e-191
1.49601e-191
2.67967e-192
4.79184e-193
8.55462e-194
1.52468e-194
2.71294e-195
4.81933e-196
8.54711e-197
1.51336e-197
2.67521e-198
4.72136e-199
8.31905e-200
1.46346e-200
2.57033e-201
4.50714e-202
7.89079e-203
1.37927e-203
2.40707e-204
4.19413e-205
7.29645e-206
1.26736e-206
2.1979e-207
3.80574e-208
6.57955e-209
1.13574e-209
1.95747e-210
3.36853e-211
5.78789e-212
9.9297e-213
1.70095e-213
2.90929e-214
4.96851e-215
8.47246e-216
1.44258e-216
2.45257e-217
4.16345e-218
7.05731e-219
1.19449e-219
2.01874e-220
3.40675e-221
5.74065e-222
9.65933e-223
1.62293e-223
2.72282e-224
4.56151e-225
7.63082e-226
1.2747e-226
2.12628e-227
3.54171e-228
5.89094e-229
9.78449e-230
1.62284e-230
2.68782e-231
4.44542e-232
)
;

boundaryField
{
    sides
    {
        type            zeroGradient;
    }
    empty
    {
        type            empty;
    }
}


// ************************************************************************* //
