/*--------------------------------*- C++ -*----------------------------------*\
| =========                 |                                                 |
| \\      /  F ield         | OpenFOAM: The Open Source CFD Toolbox           |
|  \\    /   O peration     | Version:  2312                                  |
|   \\  /    A nd           | Website:  www.openfoam.com                      |
|    \\/     M anipulation  |                                                 |
\*---------------------------------------------------------------------------*/
FoamFile
{
    version     2.0;
    format      ascii;
    arch        "LSB;label=32;scalar=64";
    class       volScalarField;
    location    "0.4";
    object      T;
}
// * * * * * * * * * * * * * * * * * * * * * * * * * * * * * * * * * * * * * //

dimensions      [0 0 0 1 0 0 0];

internalField   nonuniform List<scalar> 
1000
(
0
0
0
0
0
0
0
0
0
0
0
0
0
0
0
0
0
0
0
0
0
0
0
0
0
0
0
0
0
0
0
0
0
0
0
0
0
0
0
0
0
0
0
0
0
0
0
0
0
0
0
0
0
0
0
0
0
0
0
0
0
0
0
0
0
0
0
0
0
0
0
0
0
0
0
0
0
0
0
0
0
0
0
0
0
0
0
0
0
0
0
0
0
0
0
0
0
0
0
0
0
0
0
0
0
0
0
0
0
0
0
0
0
0
0
0
0
0
0
0
0
0
0
0
0
0
0
0
0
0
0
0
0
0
0
0
0
0
0
0
0
0
0
0
0
0
0
0
0
0
0
0
0
0
0
0
0
0
0
0
0
0
0
0
0
0
0
0
0
0
0
0
0
0
0
0
0
0
0
0
0
0
0
0
0
0
0
0
0
0
0
0
0
0
0
0
0
0
0
0
0
0
0
0
0
0
0
0
0
-2.66795e-322
2.39819e-320
-2.13148e-318
1.87548e-316
-1.63319e-314
1.40754e-312
-1.20059e-310
1.01355e-308
-8.46872e-307
7.00364e-305
-5.73284e-303
4.64474e-301
-3.72483e-299
2.95672e-297
-2.32316e-295
1.80684e-293
-1.39103e-291
1.06008e-289
-7.99697e-288
5.97181e-286
-4.41453e-284
3.23046e-282
-2.34018e-280
1.67821e-278
-1.1914e-276
8.37307e-275
-5.82551e-273
4.01242e-271
-2.73594e-269
1.84687e-267
-1.23423e-265
8.16569e-264
-5.34841e-262
3.46813e-260
-2.2264e-258
1.41499e-256
-8.9032e-255
5.54601e-253
-3.42025e-251
2.08824e-249
-1.26225e-247
7.55362e-246
-4.47516e-244
2.62485e-242
-1.52421e-240
8.76243e-239
-4.98707e-237
2.80999e-235
-1.56748e-233
8.65636e-232
-4.73262e-230
2.56153e-228
-1.37254e-226
7.2808e-225
-3.82344e-223
1.9877e-221
-1.02297e-219
5.2118e-218
-2.62858e-216
1.31238e-214
-6.48633e-213
3.17347e-211
-1.53695e-209
7.36838e-208
-3.49675e-206
1.6426e-204
-7.6378e-203
3.51535e-201
-1.60149e-199
7.22158e-198
-3.22316e-196
1.42387e-194
-6.22565e-193
2.69415e-191
-1.15391e-189
4.89135e-188
-2.05202e-186
8.51967e-185
-3.50061e-183
1.42342e-181
-5.72777e-180
2.2808e-178
-8.98731e-177
3.50431e-175
-1.35206e-173
5.16173e-172
-1.94981e-170
7.28747e-169
-2.69484e-167
9.85943e-166
-3.56877e-164
1.27797e-162
-4.52737e-161
1.58665e-159
-5.50059e-158
1.88634e-156
-6.39875e-155
2.14695e-153
-7.12498e-152
2.33865e-150
-7.5919e-149
2.43738e-147
-7.73865e-146
2.42974e-144
-7.5438e-143
2.31599e-141
-7.03042e-140
2.11011e-138
-6.26162e-137
1.837e-135
-5.32782e-134
1.52753e-132
-4.32916e-131
1.21276e-129
-3.35796e-128
9.18937e-127
-2.48532e-125
6.64262e-124
-1.75442e-122
4.57868e-121
-1.18068e-119
3.00804e-118
-7.57123e-117
1.88259e-115
-4.62401e-114
1.12184e-112
-2.68819e-111
6.36174e-110
-1.48679e-108
3.43119e-107
-7.81867e-106
1.75905e-104
-3.90705e-103
8.56657e-102
-1.85403e-100
3.96045e-99
-8.34928e-98
1.73697e-96
-3.56563e-95
7.22169e-94
-1.44297e-92
2.84414e-91
-5.52935e-90
1.06019e-88
-2.00461e-87
3.73738e-86
-6.86984e-85
1.24485e-83
-2.22347e-82
3.91409e-81
-6.78989e-80
1.16057e-78
-1.95434e-77
3.24181e-76
-5.29633e-75
8.52112e-74
-1.34986e-72
2.10517e-71
-3.23162e-70
4.88221e-69
-7.25779e-68
1.06147e-66
-1.52703e-65
2.16045e-64
-3.00547e-63
4.11026e-62
-5.52487e-61
7.2976e-60
-9.46993e-59
1.20704e-57
-1.51079e-56
1.85646e-55
-2.23901e-54
2.6497e-53
-3.07602e-52
3.50193e-51
-3.90859e-50
4.27555e-49
-4.58226e-48
4.80987e-47
-4.94308e-46
4.97173e-45
-4.89205e-44
4.70726e-43
-4.42738e-42
4.06844e-41
-3.65088e-40
3.19766e-39
-2.73208e-38
2.27577e-37
-1.84699e-36
1.45954e-35
-1.12221e-34
8.38896e-34
-6.09198e-33
4.29377e-32
-2.93448e-31
1.94256e-30
-1.24413e-29
7.69935e-29
-4.59748e-28
2.64469e-27
-1.463e-26
7.76673e-26
-3.94764e-25
1.9158e-24
-8.84821e-24
3.87377e-23
-1.59973e-22
6.19218e-22
-2.22764e-21
7.3592e-21
-2.19177e-20
5.70006e-20
-1.21025e-19
1.69797e-19
5.5024e-20
-1.33271e-18
4.98906e-18
-1.06657e-17
7.65937e-18
3.99487e-17
-1.81265e-16
3.31247e-16
1.04261e-16
-2.29837e-15
5.57874e-15
-5.47011e-16
-3.14276e-14
7.29969e-14
3.00797e-14
-4.73053e-13
6.59382e-13
1.58561e-12
-5.92927e-12
-1.00919e-12
3.3191e-11
-2.73616e-11
-1.5259e-10
2.47792e-10
6.55455e-10
-1.52114e-09
-2.94132e-09
7.86938e-09
1.48921e-08
-3.53947e-08
-8.35914e-08
1.27559e-07
4.71195e-07
-2.27672e-07
-2.35383e-06
-1.44582e-06
8.70568e-06
1.78626e-05
-1.1245e-05
-9.36098e-05
-0.000115961
0.000166112
0.000801079
0.00106029
-0.000700052
-0.00573791
-0.0119773
-0.0109674
0.0123722
0.0751525
0.188118
0.347867
0.534834
0.719197
0.872
0.975629
1.02838
1.04174
1.03295
1.01755
1.00501
0.998445
0.996802
0.997648
0.998993
0.999892
1.00022
1.00021
1.0001
1.00002
0.999985
0.999985
0.999993
0.999999
1
1
1
1
1
1
1
1
1
1
1
1
1
1
1
1
1
1
1
1
1
1
1
1
1
1
1
1
1
1
1
1
1
1
1
1
1
1
1
1
1
1
1
1
1
1
1
1
1
1
1
1
1
1
1
1
1
1
1
1
1
1
0.999991
0.999982
1.00001
1.00009
1.00012
0.999834
0.999199
0.99894
1.0007
1.00574
1.01198
1.01097
0.987628
0.924848
0.811882
0.652133
0.465166
0.280803
0.128
0.0243713
-0.0283836
-0.0417355
-0.0329479
-0.0175475
-0.00501321
0.00155526
0.00319842
0.00235171
0.00100652
0.000108274
-0.000219934
-0.000208743
-9.94685e-05
-1.7041e-05
1.4562e-05
1.5107e-05
6.92846e-06
9.78211e-07
-1.04708e-06
-9.30208e-07
-3.57897e-07
-1.3955e-08
7.17086e-08
4.6931e-08
1.27467e-08
-2.36964e-09
-3.99788e-09
-1.79275e-09
-2.09575e-10
2.32862e-10
1.65538e-10
4.43838e-11
-7.15536e-12
-1.16629e-11
-4.6382e-12
-2.87544e-13
6.49773e-13
3.62522e-13
6.5776e-14
-2.78245e-14
-2.33785e-14
-6.32356e-15
7.55737e-16
1.2966e-15
4.56359e-16
6.92488e-18
-6.3205e-17
-2.76991e-17
-2.66695e-18
2.74139e-18
1.48127e-18
2.26961e-19
-1.06461e-19
-7.16005e-20
-1.40881e-20
3.70725e-21
3.18082e-21
7.36478e-22
-1.15353e-22
-1.31443e-22
-3.41225e-23
3.17524e-24
5.09974e-24
1.43672e-24
-7.58003e-26
-1.87135e-25
-5.5775e-26
1.51362e-27
6.53209e-27
2.01471e-27
-2.39026e-29
-2.17823e-28
-6.81234e-29
3.1042e-31
6.95935e-30
2.16466e-30
-8.31202e-33
-2.13377e-31
-6.4793e-32
5.78561e-34
6.28123e-33
1.82905e-33
-3.55906e-35
-1.77445e-34
-4.87003e-35
1.72564e-36
4.80522e-36
1.22195e-36
-7.00057e-38
-1.24541e-37
-2.88335e-38
2.48145e-39
3.08361e-39
6.37585e-40
-7.89015e-41
-7.2794e-41
-1.31371e-41
2.28749e-42
1.63497e-42
2.49859e-43
-6.11105e-44
-3.48599e-44
-4.31393e-45
1.51501e-45
7.03821e-46
6.53746e-47
-3.5022e-47
-1.34162e-47
-7.97963e-49
7.57347e-49
2.40538e-49
5.34566e-51
-1.53525e-50
-4.03521e-51
8.52165e-53
2.92073e-52
6.28498e-53
-4.68835e-54
-5.21626e-54
-8.97361e-55
1.31242e-55
8.74031e-56
1.14721e-56
-2.92174e-57
-1.37178e-57
-1.24644e-58
5.67132e-59
2.01048e-59
9.77327e-61
-9.93454e-61
-2.73711e-61
-3.85369e-64
1.59575e-62
3.43032e-63
-1.91773e-64
-2.36896e-64
-3.89296e-65
5.20581e-66
3.2613e-66
3.86756e-67
-9.99031e-68
-4.16396e-68
-3.08178e-69
1.61598e-69
4.91522e-70
1.32106e-71
-2.32349e-71
-5.32386e-72
1.48747e-73
3.03594e-73
5.21097e-74
-5.20638e-75
-3.6408e-75
-4.46105e-76
9.46439e-77
4.0207e-77
3.06713e-78
-1.36981e-78
-4.08199e-79
-1.15297e-80
1.72587e-80
3.78138e-81
-1.03924e-82
-1.95587e-82
-3.14165e-83
3.196e-84
2.02159e-84
2.25032e-85
-5.0026e-86
-1.91487e-86
-1.24059e-87
6.21504e-88
1.65917e-88
2.60349e-90
-6.71197e-90
-1.30282e-90
5.61317e-92
6.51186e-92
9.06303e-93
-1.13991e-93
-5.75294e-94
-5.27911e-95
1.44709e-95
4.64597e-96
2.11933e-97
-1.50664e-97
-3.41709e-98
1.76297e-100
1.37856e-99
2.25833e-100
-1.57216e-101
-1.13816e-101
-1.29755e-102
2.19022e-103
8.56765e-104
5.91183e-105
-2.23958e-105
-5.8883e-106
-1.35432e-107
1.94745e-107
3.66897e-108
-1.12516e-109
-1.50885e-109
-2.03174e-110
2.119e-111
1.06138e-111
9.50605e-113
-2.20606e-113
-6.82339e-114
-3.17834e-115
1.84768e-115
4.00227e-116
5.43717e-120
-1.35327e-117
-2.11819e-118
1.2211e-119
8.9395e-120
9.83119e-121
-1.41567e-121
-5.39454e-122
-3.70447e-123
1.17267e-123
2.98367e-124
8.13901e-126
-8.22455e-126
-1.50589e-126
2.97306e-128
5.14399e-128
6.83306e-129
-5.57835e-130
-2.93081e-130
-2.68617e-131
4.86968e-132
1.53453e-132
8.21228e-134
-3.35387e-134
-7.39273e-135
-1.02881e-136
2.01401e-136
3.25788e-137
-1.05945e-138
-1.0934e-138
-1.29181e-139
1.2343e-140
5.45304e-141
4.42681e-142
-8.87732e-143
-2.51512e-143
-1.16232e-144
5.26251e-145
1.07358e-145
1.01927e-147
-2.76605e-147
-4.21893e-148
1.41757e-149
1.32719e-149
1.50502e-150
-1.3747e-151
-5.89346e-152
-4.71545e-153
8.67903e-154
2.4374e-154
1.18503e-155
-4.57522e-156
-9.40406e-157
-1.53223e-158
2.15403e-158
3.37604e-159
-6.84006e-161
-9.31323e-161
-1.11854e-161
7.40773e-163
3.74948e-163
3.3583e-164
-4.44337e-165
-1.4159e-165
-8.758e-167
2.17019e-167
5.03288e-168
1.74783e-169
-9.40899e-170
-1.68512e-170
-1.03962e-172
3.74609e-172
5.3039e-173
-1.39278e-174
-1.39287e-174
-1.5605e-175
1.03508e-176
4.88268e-177
4.24174e-178
-5.14092e-179
-1.62292e-179
-1.0394e-180
2.15747e-181
5.13262e-182
2.16369e-183
-8.16907e-184
-1.54751e-184
-3.10604e-186
2.87039e-186
4.45143e-187
-1.48395e-189
-9.49967e-189
-1.2211e-189
3.59035e-191
2.98787e-191
3.18858e-192
-1.91337e-193
-8.98404e-194
-7.89613e-195
7.74609e-196
2.59336e-196
1.84171e-197
-2.74251e-198
-7.20962e-199
-3.99503e-200
8.90739e-201
1.93518e-201
7.85774e-203
-2.71407e-203
-5.02584e-204
-1.31923e-205
7.8561e-206
1.2653e-206
1.52934e-208
-2.17743e-208
-3.09341e-209
6.41589e-212
5.81022e-211
7.35668e-212
-1.20412e-213
-1.49861e-213
-1.70486e-214
5.26244e-216
3.74779e-216
3.85715e-217
-1.75779e-218
-9.11054e-219
-8.53685e-220
5.15533e-221
2.15725e-221
1.8525e-222
-1.39136e-223
-4.98446e-224
-3.95122e-225
3.53134e-226
1.12554e-226
8.306e-228
-8.5286e-229
-2.48713e-229
-1.72576e-230
1.97382e-231
5.38414e-232
3.55414e-233
-4.39681e-234
-1.14291e-234
-7.27434e-236
9.4525e-237
2.38061e-237
1.48279e-238
-1.96426e-239
-4.86814e-240
-3.01432e-241
3.94759e-242
9.77579e-243
6.11374e-244
-7.66975e-245
-1.92781e-245
-1.23648e-246
1.43856e-247
3.7325e-248
2.49002e-249
-2.59765e-250
-7.0916e-251
-4.98229e-252
4.49463e-253
1.32117e-253
9.88009e-255
-7.39332e-256
-2.41082e-256
-1.93652e-257
1.1402e-258
4.30266e-259
3.74144e-260
-1.60459e-261
-7.49662e-262
-7.10703e-263
1.93324e-264
1.27204e-264
1.32406e-265
-1.58978e-267
-2.09546e-267
-2.41371e-268
-6.39524e-271
3.33696e-270
4.29563e-271
7.22775e-273
-5.10648e-273
-7.44582e-274
-2.28345e-275
7.44204e-276
1.2538e-276
5.56711e-278
-1.01782e-278
-2.04497e-279
-1.19323e-280
1.27103e-281
3.21873e-282
2.34859e-283
-1.36141e-284
-4.86534e-285
-4.3269e-286
1.00902e-287
7.01418e-288
7.53024e-289
2.75397e-291
-9.54456e-291
-1.11881e-291
)
;

boundaryField
{
    sides
    {
        type            zeroGradient;
    }
    empty
    {
        type            empty;
    }
}


// ************************************************************************* //
