/*--------------------------------*- C++ -*----------------------------------*\
| =========                 |                                                 |
| \\      /  F ield         | OpenFOAM: The Open Source CFD Toolbox           |
|  \\    /   O peration     | Version:  2312                                  |
|   \\  /    A nd           | Website:  www.openfoam.com                      |
|    \\/     M anipulation  |                                                 |
\*---------------------------------------------------------------------------*/
FoamFile
{
    version     2.0;
    format      ascii;
    arch        "LSB;label=32;scalar=64";
    class       volScalarField;
    location    "2.9";
    object      T;
}
// * * * * * * * * * * * * * * * * * * * * * * * * * * * * * * * * * * * * * //

dimensions      [0 0 0 1 0 0 0];

internalField   nonuniform List<scalar> 
1000
(
3.01562e-104
5.87232e-104
1.4433e-103
3.69603e-103
9.51297e-103
2.44726e-102
6.28727e-102
1.61291e-101
4.13154e-101
1.05674e-100
2.69883e-100
6.88232e-100
1.75244e-99
4.45554e-99
1.13111e-98
2.86718e-98
7.25692e-98
1.83397e-97
4.62783e-97
1.16601e-96
2.9334e-96
7.3685e-96
1.8481e-95
4.62818e-95
1.15726e-94
2.88927e-94
7.20244e-94
1.79269e-93
4.45515e-93
1.10548e-92
2.73886e-92
6.77513e-92
1.67338e-91
4.12664e-91
1.01607e-90
2.49792e-90
6.13133e-90
1.50264e-89
3.67684e-89
8.98286e-89
2.19116e-88
5.33644e-88
1.29762e-87
3.15033e-87
7.63625e-87
1.84807e-86
4.46548e-86
1.07728e-85
2.59478e-85
6.23993e-85
1.49819e-84
3.59138e-84
8.59529e-84
2.05383e-83
4.89971e-83
1.16702e-82
2.77516e-82
6.58866e-82
1.56172e-81
3.6958e-81
8.7319e-81
2.0597e-80
4.85057e-80
1.14045e-79
2.677e-79
6.27351e-79
1.46779e-78
3.42849e-78
7.99521e-78
1.86141e-77
4.32651e-77
1.00396e-76
2.32583e-76
5.37924e-76
1.24206e-75
2.86314e-75
6.58899e-75
1.51381e-74
3.47216e-74
7.95061e-74
1.8175e-73
4.1478e-73
9.45e-73
2.14939e-72
4.88051e-72
1.10632e-71
2.50359e-71
5.65597e-71
1.2756e-70
2.872e-70
6.45525e-70
1.44844e-69
3.24449e-69
7.25517e-69
1.61959e-68
3.60923e-68
8.02931e-68
1.78317e-67
3.95328e-67
8.74927e-67
1.93301e-66
4.26325e-66
9.3863e-66
2.06296e-65
4.52617e-65
9.91315e-65
2.16737e-64
4.73034e-64
1.0306e-63
2.24143e-63
4.86624e-63
1.05462e-62
2.28156e-62
4.92717e-62
1.06217e-61
2.2857e-61
4.9099e-61
1.05281e-60
2.25349e-60
4.81484e-60
1.02691e-59
2.18626e-59
4.64615e-59
9.85602e-59
2.08703e-58
4.41133e-58
9.30735e-58
1.96018e-57
4.12076e-57
8.64708e-57
1.81122e-56
3.78687e-56
7.90309e-56
1.64634e-55
3.4233e-55
7.10516e-55
1.47199e-54
3.04393e-54
6.28297e-54
1.29447e-53
2.66205e-53
5.46429e-53
1.11956e-52
2.28955e-52
4.67354e-52
9.52206e-52
1.93644e-51
3.93065e-51
7.96363e-51
1.61043e-50
3.25054e-50
6.54863e-50
1.31682e-49
2.6429e-49
5.29436e-49
1.05858e-48
2.11255e-48
4.20789e-48
8.36555e-48
1.65995e-47
3.28751e-47
6.49839e-47
1.28207e-46
2.52455e-46
4.96158e-46
9.73239e-46
1.90537e-45
3.72307e-45
7.26076e-45
1.41325e-44
2.74545e-44
5.32308e-44
1.03007e-43
1.98939e-43
3.83465e-43
7.37702e-43
1.41639e-42
2.71415e-42
5.19074e-42
9.90762e-42
1.88735e-41
3.58819e-41
6.80831e-41
1.28926e-40
2.43658e-40
4.59576e-40
8.65103e-40
1.62522e-39
3.0471e-39
5.70155e-39
1.0647e-38
1.98423e-38
3.69046e-38
6.85007e-38
1.26892e-37
2.34582e-37
4.32789e-37
7.96852e-37
1.46419e-36
2.68494e-36
4.91345e-36
8.97331e-36
1.63543e-35
2.97456e-35
5.39914e-35
9.7799e-35
1.76788e-34
3.18915e-34
5.74121e-34
1.03142e-33
1.84914e-33
3.30829e-33
5.90659e-33
1.05237e-32
1.8711e-32
3.31987e-32
5.87812e-32
1.0386e-31
1.83126e-31
3.22211e-31
5.65745e-31
9.9126e-31
1.73317e-30
3.02397e-30
5.265e-30
9.14747e-30
1.58593e-29
2.74376e-29
4.73681e-29
8.16023e-29
1.40279e-28
2.40635e-28
4.11905e-28
7.03568e-28
1.19918e-27
2.03954e-27
3.46136e-27
5.86175e-27
9.90541e-27
1.67025e-26
2.81029e-26
4.71826e-26
7.90445e-26
1.32136e-25
2.20407e-25
3.66847e-25
6.09255e-25
1.00964e-24
1.6695e-24
2.75457e-24
4.53494e-24
7.44968e-24
1.22109e-23
1.99713e-23
3.25917e-23
5.30701e-23
8.62252e-23
1.39784e-22
2.26111e-22
3.64941e-22
5.87705e-22
9.44347e-22
1.51404e-21
2.422e-21
3.86584e-21
6.15663e-21
9.78298e-21
1.55105e-20
2.45363e-20
3.87271e-20
6.09882e-20
9.58295e-20
1.50236e-19
2.35001e-19
3.66761e-19
5.71103e-19
8.87285e-19
1.37539e-18
2.12718e-18
3.28244e-18
5.05359e-18
7.76272e-18
1.1897e-17
1.81915e-17
2.77529e-17
4.2243e-17
6.41513e-17
9.71985e-17
1.46932e-16
2.21603e-16
3.33454e-16
5.00605e-16
7.49812e-16
1.12049e-15
1.67054e-15
2.48487e-15
3.68761e-15
5.45981e-15
8.06497e-15
1.18855e-14
1.74753e-14
2.56342e-14
3.75147e-14
5.47736e-14
7.9786e-14
1.15949e-13
1.68109e-13
2.43163e-13
3.50902e-13
5.0519e-13
7.25612e-13
1.03976e-12
1.48641e-12
2.11994e-12
3.01636e-12
4.28172e-12
6.06356e-12
8.56665e-12
1.20744e-11
1.69783e-11
2.38174e-11
3.33321e-11
4.65373e-11
6.48198e-11
9.00705e-11
1.2486e-10
1.72676e-10
2.38235e-10
3.27901e-10
4.50241e-10
6.16751e-10
8.42824e-10
1.14902e-09
1.5627e-09
2.12025e-09
2.86984e-09
3.87514e-09
5.22007e-09
7.01491e-09
9.40429e-09
1.25773e-08
1.67804e-08
2.23345e-08
2.96553e-08
3.92812e-08
5.19065e-08
6.84245e-08
8.99819e-08
1.18046e-07
1.5449e-07
2.01698e-07
2.62696e-07
3.41317e-07
4.42398e-07
5.7203e-07
7.37863e-07
9.49472e-07
1.21882e-06
1.56079e-06
1.99389e-06
2.54102e-06
3.23045e-06
4.09701e-06
5.18348e-06
6.5422e-06
8.23714e-06
1.03461e-05
1.29637e-05
1.62042e-05
2.02059e-05
2.51349e-05
3.11908e-05
3.86123e-05
4.76843e-05
5.87456e-05
7.21982e-05
8.85174e-05
0.000108264
0.000132096
0.000160786
0.000195236
0.000236497
0.00028579
0.000344527
0.000414338
0.000497099
0.000594962
0.000710385
0.000846169
0.0010055
0.00119198
0.00140966
0.00166314
0.00195751
0.00229852
0.00269253
0.00314659
0.00366853
0.00426694
0.00495124
0.00573176
0.00661973
0.00762732
0.0087677
0.010055
0.0115045
0.0131323
0.0149556
0.0169926
0.0192625
0.0217854
0.0245822
0.0276746
0.0310848
0.034836
0.0389514
0.0434546
0.0483695
0.0537197
0.0595286
0.0658192
0.0726136
0.0799332
0.087798
0.0962266
0.105236
0.114841
0.125054
0.135886
0.147344
0.159433
0.172154
0.185505
0.199481
0.214074
0.22927
0.245053
0.261403
0.278297
0.295706
0.3136
0.331944
0.3507
0.369828
0.389284
0.409022
0.428993
0.449148
0.469436
0.489803
0.510197
0.530564
0.550851
0.571006
0.590978
0.610715
0.630171
0.649299
0.668055
0.686398
0.704292
0.7217
0.738593
0.754942
0.770724
0.785918
0.800508
0.814482
0.82783
0.840547
0.852631
0.864083
0.874907
0.885111
0.894705
0.903701
0.912114
0.919959
0.927254
0.93402
0.940276
0.946044
0.951345
0.956201
0.960634
0.964667
0.96832
0.971615
0.974572
0.977209
0.979545
0.981598
0.983381
0.98491
0.986197
0.987252
0.988086
0.988704
0.989113
0.989317
0.989317
0.989113
0.988704
0.988086
0.987252
0.986197
0.98491
0.983381
0.981598
0.979545
0.977209
0.974572
0.971615
0.96832
0.964667
0.960634
0.956201
0.951345
0.946044
0.940276
0.93402
0.927254
0.919959
0.912114
0.903701
0.894705
0.885111
0.874907
0.864083
0.852631
0.840547
0.82783
0.814482
0.800508
0.785918
0.770724
0.754942
0.738593
0.7217
0.704292
0.686398
0.668055
0.649299
0.630171
0.610715
0.590978
0.571006
0.550851
0.530564
0.510197
0.489803
0.469436
0.449148
0.428993
0.409022
0.389284
0.369828
0.3507
0.331944
0.3136
0.295706
0.278297
0.261403
0.245053
0.22927
0.214074
0.199481
0.185505
0.172154
0.159433
0.147344
0.135886
0.125054
0.114841
0.105236
0.0962266
0.087798
0.0799332
0.0726136
0.0658192
0.0595286
0.0537197
0.0483695
0.0434546
0.0389514
0.034836
0.0310848
0.0276746
0.0245822
0.0217854
0.0192625
0.0169926
0.0149556
0.0131323
0.0115045
0.010055
0.0087677
0.00762732
0.00661973
0.00573176
0.00495124
0.00426694
0.00366853
0.00314659
0.00269253
0.00229852
0.00195751
0.00166314
0.00140966
0.00119198
0.0010055
0.000846169
0.000710385
0.000594962
0.000497099
0.000414338
0.000344527
0.00028579
0.000236497
0.000195236
0.000160786
0.000132096
0.000108264
8.85174e-05
7.21982e-05
5.87456e-05
4.76843e-05
3.86123e-05
3.11908e-05
2.51349e-05
2.02059e-05
1.62042e-05
1.29637e-05
1.03461e-05
8.23714e-06
6.5422e-06
5.18348e-06
4.09701e-06
3.23045e-06
2.54102e-06
1.99389e-06
1.56079e-06
1.21882e-06
9.49472e-07
7.37863e-07
5.7203e-07
4.42398e-07
3.41317e-07
2.62696e-07
2.01698e-07
1.5449e-07
1.18046e-07
8.99819e-08
6.84245e-08
5.19065e-08
3.92812e-08
2.96553e-08
2.23345e-08
1.67804e-08
1.25773e-08
9.40429e-09
7.01491e-09
5.22007e-09
3.87514e-09
2.86984e-09
2.12025e-09
1.5627e-09
1.14902e-09
8.42824e-10
6.16751e-10
4.50241e-10
3.27901e-10
2.38235e-10
1.72676e-10
1.2486e-10
9.00705e-11
6.48198e-11
4.65373e-11
3.33321e-11
2.38174e-11
1.69783e-11
1.20744e-11
8.56665e-12
6.06356e-12
4.28172e-12
3.01636e-12
2.11994e-12
1.48641e-12
1.03976e-12
7.25612e-13
5.0519e-13
3.50902e-13
2.43163e-13
1.68109e-13
1.15949e-13
7.9786e-14
5.47736e-14
3.75147e-14
2.56342e-14
1.74753e-14
1.18855e-14
8.06497e-15
5.45981e-15
3.68761e-15
2.48487e-15
1.67054e-15
1.12049e-15
7.49812e-16
5.00605e-16
3.33454e-16
2.21603e-16
1.46932e-16
9.71985e-17
6.41513e-17
4.2243e-17
2.77529e-17
1.81915e-17
1.1897e-17
7.76272e-18
5.05359e-18
3.28244e-18
2.12718e-18
1.37539e-18
8.87285e-19
5.71103e-19
3.66761e-19
2.35001e-19
1.50236e-19
9.58295e-20
6.09882e-20
3.87271e-20
2.45363e-20
1.55105e-20
9.78298e-21
6.15663e-21
3.86584e-21
2.422e-21
1.51404e-21
9.44347e-22
5.87705e-22
3.64941e-22
2.26111e-22
1.39784e-22
8.62252e-23
5.30701e-23
3.25917e-23
1.99713e-23
1.22109e-23
7.44968e-24
4.53494e-24
2.75457e-24
1.6695e-24
1.00964e-24
6.09255e-25
3.66847e-25
2.20407e-25
1.32136e-25
7.90445e-26
4.71826e-26
2.81029e-26
1.67025e-26
9.90541e-27
5.86175e-27
3.46136e-27
2.03954e-27
1.19918e-27
7.03568e-28
4.11905e-28
2.40635e-28
1.40279e-28
8.16023e-29
4.73681e-29
2.74376e-29
1.58593e-29
9.14747e-30
5.265e-30
3.02397e-30
1.73317e-30
9.9126e-31
5.65745e-31
3.22211e-31
1.83126e-31
1.0386e-31
5.87812e-32
3.31987e-32
1.8711e-32
1.05237e-32
5.90659e-33
3.30829e-33
1.84914e-33
1.03142e-33
5.74121e-34
3.18915e-34
1.76788e-34
9.7799e-35
5.39914e-35
2.97456e-35
1.63543e-35
8.97331e-36
4.91345e-36
2.68494e-36
1.46419e-36
7.96852e-37
4.32789e-37
2.34582e-37
1.26892e-37
6.85007e-38
3.69046e-38
1.98423e-38
1.0647e-38
5.70155e-39
3.0471e-39
1.62522e-39
8.65103e-40
4.59576e-40
2.43658e-40
1.28926e-40
6.80831e-41
3.58819e-41
1.88735e-41
9.90762e-42
5.19074e-42
2.71415e-42
1.41639e-42
7.37702e-43
3.83465e-43
1.98939e-43
1.03007e-43
5.32308e-44
2.74545e-44
1.41325e-44
7.26076e-45
3.72307e-45
1.90537e-45
9.73239e-46
4.96158e-46
2.52455e-46
1.28207e-46
6.49839e-47
3.28751e-47
1.65995e-47
8.36555e-48
4.20789e-48
2.11255e-48
1.05858e-48
5.29436e-49
2.6429e-49
1.31682e-49
6.54863e-50
3.25054e-50
1.61043e-50
7.96363e-51
3.93065e-51
1.93644e-51
9.52206e-52
4.67354e-52
2.28955e-52
1.11956e-52
5.46429e-53
2.66205e-53
1.29447e-53
6.28297e-54
3.04393e-54
1.47199e-54
7.10516e-55
3.4233e-55
1.64634e-55
7.90309e-56
3.78687e-56
1.81122e-56
8.64708e-57
4.12076e-57
1.96018e-57
9.30735e-58
4.41133e-58
2.08703e-58
9.85602e-59
4.64615e-59
2.18626e-59
1.02691e-59
4.81484e-60
2.25349e-60
1.05281e-60
4.9099e-61
2.2857e-61
1.06217e-61
4.92717e-62
2.28156e-62
1.05462e-62
4.86624e-63
2.24143e-63
1.0306e-63
4.73034e-64
2.16737e-64
9.91315e-65
4.52617e-65
2.06296e-65
9.3863e-66
4.26325e-66
1.93301e-66
8.74927e-67
3.95328e-67
1.78317e-67
8.02931e-68
3.60923e-68
1.61959e-68
7.25517e-69
3.24449e-69
1.44844e-69
6.45525e-70
2.872e-70
1.2756e-70
5.65597e-71
2.50359e-71
1.10632e-71
4.88051e-72
2.14939e-72
9.45e-73
4.1478e-73
1.8175e-73
7.95061e-74
3.47216e-74
1.51381e-74
6.58899e-75
2.86314e-75
1.24206e-75
5.37924e-76
2.32583e-76
1.00396e-76
4.32651e-77
1.86141e-77
7.99521e-78
3.42849e-78
1.46779e-78
6.27351e-79
2.677e-79
1.14045e-79
4.85057e-80
2.0597e-80
8.7319e-81
3.6958e-81
1.56172e-81
6.58866e-82
2.77516e-82
1.16702e-82
4.89971e-83
2.05383e-83
8.59529e-84
3.59138e-84
1.49819e-84
6.23993e-85
2.59478e-85
1.07728e-85
4.46548e-86
1.84807e-86
7.63625e-87
3.15033e-87
1.29762e-87
5.33644e-88
2.19116e-88
8.98286e-89
3.67684e-89
1.50264e-89
6.13133e-90
2.49792e-90
1.01607e-90
4.12664e-91
1.67338e-91
6.77513e-92
2.73886e-92
1.10548e-92
4.45515e-93
1.79269e-93
7.20244e-94
2.88927e-94
1.15726e-94
4.62818e-95
1.8481e-95
7.3685e-96
2.9334e-96
1.16601e-96
4.62783e-97
1.83397e-97
7.25692e-98
2.86718e-98
1.13111e-98
4.45554e-99
1.75244e-99
6.88232e-100
2.69883e-100
1.05674e-100
4.13154e-101
1.61291e-101
6.28727e-102
2.44726e-102
9.51297e-103
3.69603e-103
1.4433e-103
5.87232e-104
3.01562e-104
)
;

boundaryField
{
    sides
    {
        type            zeroGradient;
    }
    empty
    {
        type            empty;
    }
}


// ************************************************************************* //
