/*--------------------------------*- C++ -*----------------------------------*\
| =========                 |                                                 |
| \\      /  F ield         | OpenFOAM: The Open Source CFD Toolbox           |
|  \\    /   O peration     | Version:  2312                                  |
|   \\  /    A nd           | Website:  www.openfoam.com                      |
|    \\/     M anipulation  |                                                 |
\*---------------------------------------------------------------------------*/
FoamFile
{
    version     2.0;
    format      ascii;
    arch        "LSB;label=32;scalar=64";
    class       volScalarField;
    location    "2.4";
    object      T;
}
// * * * * * * * * * * * * * * * * * * * * * * * * * * * * * * * * * * * * * //

dimensions      [0 0 0 1 0 0 0];

internalField   nonuniform List<scalar> 
1000
(
9.55509e-11
9.60319e-11
9.73585e-11
9.95412e-11
1.02598e-10
1.06552e-10
1.11436e-10
1.17289e-10
1.24157e-10
1.32094e-10
1.41164e-10
1.51439e-10
1.62999e-10
1.75936e-10
1.9035e-10
2.06355e-10
2.24075e-10
2.43649e-10
2.65226e-10
2.88975e-10
3.15077e-10
3.43731e-10
3.75157e-10
4.09593e-10
4.47299e-10
4.88558e-10
5.33681e-10
5.83003e-10
6.3689e-10
6.95742e-10
7.5999e-10
8.30106e-10
9.06601e-10
9.9003e-10
1.081e-09
1.18015e-09
1.28821e-09
1.40593e-09
1.53416e-09
1.6738e-09
1.82582e-09
1.99129e-09
2.17136e-09
2.36727e-09
2.58038e-09
2.81214e-09
3.06412e-09
3.33804e-09
3.63575e-09
3.95924e-09
4.31067e-09
4.69238e-09
5.10689e-09
5.55692e-09
6.04542e-09
6.57558e-09
7.15081e-09
7.77483e-09
8.45164e-09
9.18555e-09
9.98122e-09
1.08437e-08
1.17783e-08
1.2791e-08
1.38879e-08
1.5076e-08
1.63625e-08
1.77552e-08
1.92627e-08
2.0894e-08
2.2659e-08
2.45682e-08
2.6633e-08
2.88656e-08
3.12791e-08
3.38878e-08
3.67067e-08
3.97523e-08
4.3042e-08
4.65948e-08
5.04307e-08
5.45717e-08
5.90411e-08
6.38638e-08
6.90667e-08
7.46787e-08
8.07308e-08
8.7256e-08
9.429e-08
1.01871e-07
1.10039e-07
1.18839e-07
1.28318e-07
1.38524e-07
1.49514e-07
1.61343e-07
1.74073e-07
1.8777e-07
2.02506e-07
2.18354e-07
2.35396e-07
2.53718e-07
2.73413e-07
2.94577e-07
3.17317e-07
3.41744e-07
3.6798e-07
3.96151e-07
4.26394e-07
4.58855e-07
4.9369e-07
5.31064e-07
5.71155e-07
6.1415e-07
6.60252e-07
7.09674e-07
7.62644e-07
8.19406e-07
8.80219e-07
9.45358e-07
1.01512e-06
1.08981e-06
1.16976e-06
1.25533e-06
1.3469e-06
1.44486e-06
1.54964e-06
1.66169e-06
1.78148e-06
1.90954e-06
2.0464e-06
2.19263e-06
2.34885e-06
2.5157e-06
2.69387e-06
2.88409e-06
3.08713e-06
3.30382e-06
3.53501e-06
3.78164e-06
4.04467e-06
4.32515e-06
4.62416e-06
4.94287e-06
5.28251e-06
5.64436e-06
6.02982e-06
6.44032e-06
6.87742e-06
7.34273e-06
7.83798e-06
8.36499e-06
8.92566e-06
9.52205e-06
1.01563e-05
1.08306e-05
1.15474e-05
1.23093e-05
1.31188e-05
1.39788e-05
1.48923e-05
1.58623e-05
1.68922e-05
1.79854e-05
1.91456e-05
2.03766e-05
2.16825e-05
2.30676e-05
2.45363e-05
2.60934e-05
2.77438e-05
2.94928e-05
3.1346e-05
3.3309e-05
3.5388e-05
3.75894e-05
3.99198e-05
4.23864e-05
4.49966e-05
4.77582e-05
5.06792e-05
5.37684e-05
5.70347e-05
6.04875e-05
6.41367e-05
6.79928e-05
7.20666e-05
7.63695e-05
8.09134e-05
8.57109e-05
9.0775e-05
9.61195e-05
0.000101759
0.000107708
0.000113982
0.000120598
0.000127574
0.000134926
0.000142674
0.000150838
0.000159437
0.000168494
0.000178031
0.00018807
0.000198637
0.000209756
0.000221455
0.00023376
0.000246701
0.000260308
0.000274611
0.000289644
0.00030544
0.000322035
0.000339465
0.000357769
0.000376986
0.000397158
0.000418328
0.00044054
0.000463841
0.00048828
0.000513907
0.000540773
0.000568932
0.000598442
0.00062936
0.000661747
0.000695665
0.000731179
0.000768358
0.000807269
0.000847987
0.000890585
0.000935142
0.000981738
0.00103046
0.00108138
0.0011346
0.00119021
0.00124831
0.00130899
0.00137235
0.00143849
0.00150754
0.00157959
0.00165477
0.00173319
0.00181498
0.00190026
0.00198916
0.00208182
0.00217837
0.00227896
0.00238374
0.00249285
0.00260646
0.00272471
0.00284779
0.00297585
0.00310907
0.00324763
0.00339171
0.0035415
0.0036972
0.003859
0.00402711
0.00420174
0.00438309
0.0045714
0.00476688
0.00496976
0.00518029
0.0053987
0.00562524
0.00586017
0.00610374
0.00635622
0.00661787
0.00688898
0.00716982
0.00746069
0.00776188
0.00807368
0.0083964
0.00873036
0.00907588
0.00943327
0.00980286
0.010185
0.01058
0.0109883
0.0114101
0.0118459
0.0122959
0.0127607
0.0132405
0.0137357
0.0142468
0.014774
0.0153179
0.0158788
0.0164571
0.0170533
0.0176677
0.0183007
0.0189529
0.0196246
0.0203163
0.0210284
0.0217613
0.0225155
0.0232915
0.0240897
0.0249105
0.0257545
0.0266221
0.0275136
0.0284298
0.0293709
0.0303374
0.0313299
0.0323487
0.0333945
0.0344676
0.0355685
0.0366976
0.0378556
0.0390428
0.0402597
0.0415067
0.0427844
0.0440932
0.0454335
0.0468059
0.0482107
0.0496484
0.0511195
0.0526244
0.0541635
0.0557372
0.057346
0.0589903
0.0606704
0.0623869
0.0641399
0.0659301
0.0677576
0.0696229
0.0715263
0.0734682
0.0754488
0.0774685
0.0795276
0.0816263
0.0837649
0.0859438
0.088163
0.090423
0.0927237
0.0950655
0.0974486
0.099873
0.102339
0.104846
0.107396
0.109987
0.11262
0.115295
0.118011
0.12077
0.123571
0.126413
0.129297
0.132223
0.13519
0.138199
0.141249
0.144339
0.147471
0.150643
0.153856
0.157108
0.1604
0.163731
0.167101
0.170509
0.173956
0.177439
0.18096
0.184518
0.188111
0.191739
0.195402
0.199099
0.20283
0.206593
0.210387
0.214213
0.218069
0.221955
0.225869
0.229811
0.23378
0.237774
0.241793
0.245836
0.249902
0.253989
0.258097
0.262224
0.26637
0.270532
0.274711
0.278904
0.283111
0.287329
0.291559
0.295798
0.300045
0.304298
0.308557
0.31282
0.317085
0.321351
0.325617
0.32988
0.33414
0.338395
0.342643
0.346882
0.351112
0.35533
0.359536
0.363726
0.3679
0.372057
0.376193
0.380308
0.3844
0.388468
0.392509
0.396522
0.400505
0.404457
0.408376
0.41226
0.416108
0.419917
0.423686
0.427414
0.431099
0.434739
0.438333
0.441879
0.445374
0.448819
0.452211
0.455548
0.458829
0.462053
0.465217
0.468321
0.471363
0.474341
0.477255
0.480102
0.482882
0.485592
0.488232
0.4908
0.493295
0.495717
0.498062
0.500332
0.502523
0.504636
0.506669
0.508621
0.510492
0.512279
0.513983
0.515603
0.517137
0.518585
0.519946
0.521219
0.522405
0.523501
0.524508
0.525426
0.526252
0.526989
0.527633
0.528187
0.528648
0.529018
0.529295
0.52948
0.529573
0.529573
0.52948
0.529295
0.529018
0.528648
0.528187
0.527633
0.526989
0.526252
0.525426
0.524508
0.523501
0.522405
0.521219
0.519946
0.518585
0.517137
0.515603
0.513983
0.512279
0.510492
0.508621
0.506669
0.504636
0.502523
0.500332
0.498062
0.495717
0.493295
0.4908
0.488232
0.485592
0.482882
0.480102
0.477255
0.474341
0.471363
0.468321
0.465217
0.462053
0.458829
0.455548
0.452211
0.448819
0.445374
0.441879
0.438333
0.434739
0.431099
0.427414
0.423686
0.419917
0.416108
0.41226
0.408376
0.404457
0.400505
0.396522
0.392509
0.388468
0.3844
0.380308
0.376193
0.372057
0.3679
0.363726
0.359536
0.35533
0.351112
0.346882
0.342643
0.338395
0.33414
0.32988
0.325617
0.321351
0.317085
0.31282
0.308557
0.304298
0.300045
0.295798
0.291559
0.287329
0.283111
0.278904
0.274711
0.270532
0.26637
0.262224
0.258097
0.253989
0.249902
0.245836
0.241793
0.237774
0.23378
0.229811
0.225869
0.221955
0.218069
0.214213
0.210387
0.206593
0.20283
0.199099
0.195402
0.191739
0.188111
0.184518
0.18096
0.177439
0.173956
0.170509
0.167101
0.163731
0.1604
0.157108
0.153856
0.150643
0.147471
0.144339
0.141249
0.138199
0.13519
0.132223
0.129297
0.126413
0.123571
0.12077
0.118011
0.115295
0.11262
0.109987
0.107396
0.104846
0.102339
0.099873
0.0974486
0.0950655
0.0927237
0.090423
0.088163
0.0859438
0.0837649
0.0816263
0.0795276
0.0774685
0.0754488
0.0734682
0.0715263
0.0696229
0.0677576
0.0659301
0.0641399
0.0623869
0.0606704
0.0589903
0.057346
0.0557372
0.0541635
0.0526244
0.0511195
0.0496484
0.0482107
0.0468059
0.0454335
0.0440932
0.0427844
0.0415067
0.0402597
0.0390428
0.0378556
0.0366976
0.0355685
0.0344676
0.0333945
0.0323487
0.0313299
0.0303374
0.0293709
0.0284298
0.0275136
0.0266221
0.0257545
0.0249105
0.0240897
0.0232915
0.0225155
0.0217613
0.0210284
0.0203163
0.0196246
0.0189529
0.0183007
0.0176677
0.0170533
0.0164571
0.0158788
0.0153179
0.014774
0.0142468
0.0137357
0.0132405
0.0127607
0.0122959
0.0118459
0.0114101
0.0109883
0.01058
0.010185
0.00980286
0.00943327
0.00907588
0.00873036
0.0083964
0.00807368
0.00776188
0.00746069
0.00716982
0.00688898
0.00661787
0.00635622
0.00610374
0.00586017
0.00562524
0.0053987
0.00518029
0.00496976
0.00476688
0.0045714
0.00438309
0.00420174
0.00402711
0.003859
0.0036972
0.0035415
0.00339171
0.00324763
0.00310907
0.00297585
0.00284779
0.00272471
0.00260646
0.00249285
0.00238374
0.00227896
0.00217837
0.00208182
0.00198916
0.00190026
0.00181498
0.00173319
0.00165477
0.00157959
0.00150754
0.00143849
0.00137235
0.00130899
0.00124831
0.00119021
0.0011346
0.00108138
0.00103046
0.000981738
0.000935142
0.000890585
0.000847987
0.000807269
0.000768358
0.000731179
0.000695665
0.000661747
0.00062936
0.000598442
0.000568932
0.000540773
0.000513907
0.00048828
0.000463841
0.00044054
0.000418328
0.000397158
0.000376986
0.000357769
0.000339465
0.000322035
0.00030544
0.000289644
0.000274611
0.000260308
0.000246701
0.00023376
0.000221455
0.000209756
0.000198637
0.00018807
0.000178031
0.000168494
0.000159437
0.000150838
0.000142674
0.000134926
0.000127574
0.000120598
0.000113982
0.000107708
0.000101759
9.61195e-05
9.0775e-05
8.57109e-05
8.09134e-05
7.63695e-05
7.20666e-05
6.79928e-05
6.41367e-05
6.04875e-05
5.70347e-05
5.37684e-05
5.06792e-05
4.77582e-05
4.49966e-05
4.23864e-05
3.99198e-05
3.75894e-05
3.5388e-05
3.3309e-05
3.1346e-05
2.94928e-05
2.77438e-05
2.60934e-05
2.45363e-05
2.30676e-05
2.16825e-05
2.03766e-05
1.91456e-05
1.79854e-05
1.68922e-05
1.58623e-05
1.48923e-05
1.39788e-05
1.31188e-05
1.23093e-05
1.15474e-05
1.08306e-05
1.01563e-05
9.52205e-06
8.92566e-06
8.36499e-06
7.83798e-06
7.34273e-06
6.87742e-06
6.44032e-06
6.02982e-06
5.64436e-06
5.28251e-06
4.94287e-06
4.62416e-06
4.32515e-06
4.04467e-06
3.78164e-06
3.53501e-06
3.30382e-06
3.08713e-06
2.88409e-06
2.69387e-06
2.5157e-06
2.34885e-06
2.19263e-06
2.0464e-06
1.90954e-06
1.78148e-06
1.66169e-06
1.54964e-06
1.44486e-06
1.3469e-06
1.25533e-06
1.16976e-06
1.08981e-06
1.01512e-06
9.45358e-07
8.80219e-07
8.19406e-07
7.62644e-07
7.09674e-07
6.60252e-07
6.1415e-07
5.71155e-07
5.31064e-07
4.9369e-07
4.58855e-07
4.26394e-07
3.96151e-07
3.6798e-07
3.41744e-07
3.17317e-07
2.94577e-07
2.73413e-07
2.53718e-07
2.35396e-07
2.18354e-07
2.02506e-07
1.8777e-07
1.74073e-07
1.61343e-07
1.49514e-07
1.38524e-07
1.28318e-07
1.18839e-07
1.10039e-07
1.01871e-07
9.429e-08
8.7256e-08
8.07308e-08
7.46787e-08
6.90667e-08
6.38638e-08
5.90411e-08
5.45717e-08
5.04307e-08
4.65948e-08
4.3042e-08
3.97523e-08
3.67067e-08
3.38878e-08
3.12791e-08
2.88656e-08
2.6633e-08
2.45682e-08
2.2659e-08
2.0894e-08
1.92627e-08
1.77552e-08
1.63625e-08
1.5076e-08
1.38879e-08
1.2791e-08
1.17783e-08
1.08437e-08
9.98122e-09
9.18555e-09
8.45164e-09
7.77483e-09
7.15081e-09
6.57558e-09
6.04542e-09
5.55692e-09
5.10689e-09
4.69238e-09
4.31067e-09
3.95924e-09
3.63575e-09
3.33804e-09
3.06412e-09
2.81214e-09
2.58038e-09
2.36727e-09
2.17136e-09
1.99129e-09
1.82582e-09
1.6738e-09
1.53416e-09
1.40593e-09
1.28821e-09
1.18015e-09
1.081e-09
9.9003e-10
9.06601e-10
8.30106e-10
7.5999e-10
6.95742e-10
6.3689e-10
5.83003e-10
5.33681e-10
4.88558e-10
4.47299e-10
4.09593e-10
3.75157e-10
3.43731e-10
3.15077e-10
2.88975e-10
2.65226e-10
2.43649e-10
2.24075e-10
2.06355e-10
1.9035e-10
1.75936e-10
1.62999e-10
1.51439e-10
1.41164e-10
1.32094e-10
1.24157e-10
1.17289e-10
1.11436e-10
1.06552e-10
1.02598e-10
9.95412e-11
9.73585e-11
9.60319e-11
9.55509e-11
)
;

boundaryField
{
    sides
    {
        type            zeroGradient;
    }
    empty
    {
        type            empty;
    }
}


// ************************************************************************* //
