/*--------------------------------*- C++ -*----------------------------------*\
| =========                 |                                                 |
| \\      /  F ield         | OpenFOAM: The Open Source CFD Toolbox           |
|  \\    /   O peration     | Version:  2312                                  |
|   \\  /    A nd           | Website:  www.openfoam.com                      |
|    \\/     M anipulation  |                                                 |
\*---------------------------------------------------------------------------*/
FoamFile
{
    version     2.0;
    format      ascii;
    arch        "LSB;label=32;scalar=64";
    class       volScalarField;
    location    "0.9";
    object      T;
}
// * * * * * * * * * * * * * * * * * * * * * * * * * * * * * * * * * * * * * //

dimensions      [0 0 0 1 0 0 0];

internalField   nonuniform List<scalar> 
1000
(
4.66257e-191
-2.7847e-190
1.49824e-189
-8.08296e-189
4.35334e-188
-2.34083e-187
1.25663e-186
-6.73497e-186
3.60374e-185
-1.92511e-184
1.0267e-183
-5.4666e-183
2.90584e-182
-1.54207e-181
8.16989e-181
-4.3212e-180
2.28174e-179
-1.20282e-178
6.33006e-178
-3.3257e-177
1.74432e-176
-9.13344e-176
4.77426e-175
-2.49138e-174
1.29788e-173
-6.74971e-173
3.50423e-172
-1.81616e-171
9.39658e-171
-4.85328e-170
2.50235e-169
-1.28798e-168
6.61781e-168
-3.3944e-167
1.73801e-166
-8.88341e-166
4.53257e-165
-2.30858e-164
1.17375e-163
-5.95717e-163
3.01809e-162
-1.52634e-161
7.70541e-161
-3.88296e-160
1.95322e-159
-9.80745e-159
4.91563e-158
-2.45932e-157
1.22819e-156
-6.12244e-156
3.04643e-155
-1.51309e-154
7.50139e-154
-3.7121e-153
1.83357e-152
-9.04009e-152
4.4488e-151
-2.18527e-150
1.07141e-149
-5.24323e-149
2.56109e-148
-1.24864e-147
6.07614e-147
-2.9512e-146
1.43069e-145
-6.92257e-145
3.34319e-144
-1.61148e-143
7.75274e-143
-3.72264e-142
1.78406e-141
-8.53349e-141
4.07382e-140
-1.94103e-139
9.2303e-139
-4.38076e-138
2.07506e-137
-9.80971e-137
4.62834e-136
-2.17938e-135
1.02419e-134
-4.80354e-134
2.24841e-133
-1.05031e-132
4.89653e-132
-2.27815e-131
1.05779e-130
-4.90156e-130
2.26666e-129
-1.04605e-128
4.81758e-128
-2.21418e-127
1.01555e-126
-4.64832e-126
2.12319e-125
-9.67783e-125
4.40212e-124
-1.99819e-123
9.05106e-123
-4.09118e-122
1.84535e-121
-8.30597e-121
3.7306e-120
-1.67201e-119
7.47776e-119
-3.33712e-118
1.48606e-117
-6.6033e-117
2.92783e-116
-1.29534e-115
5.71844e-115
-2.51894e-114
1.10715e-113
-4.85551e-113
2.12473e-112
-9.27704e-112
4.04155e-111
-1.75677e-110
7.61922e-110
-3.29707e-109
1.42353e-108
-6.13224e-108
2.63564e-107
-1.13022e-106
4.83553e-106
-2.06409e-105
8.79048e-105
-3.73501e-104
1.5833e-103
-6.6961e-103
2.82531e-102
-1.1893e-101
4.99453e-101
-2.09253e-100
8.74616e-100
-3.64695e-99
1.51707e-98
-6.29563e-98
2.60632e-97
-1.07639e-96
4.4346e-96
-1.82257e-95
7.47228e-95
-3.05603e-94
1.24679e-93
-5.07404e-93
2.05987e-92
-8.34149e-92
3.36947e-91
-1.35766e-90
5.45665e-90
-2.18758e-89
8.7478e-89
-3.48921e-88
1.38818e-87
-5.50867e-87
2.18036e-86
-8.60769e-86
3.38934e-85
-1.3311e-84
5.21397e-84
-2.03696e-83
7.93689e-83
-3.08437e-82
1.19543e-81
-4.62085e-81
1.78136e-80
-6.84876e-80
2.626e-79
-1.00415e-78
3.82924e-78
-1.45626e-77
5.52288e-77
-2.08878e-76
7.87793e-76
-2.96292e-75
1.11125e-74
-4.15603e-74
1.54995e-73
-5.76402e-73
2.13744e-72
-7.90345e-72
2.914e-71
-1.07129e-70
3.92703e-70
-1.43533e-69
5.23081e-69
-1.90067e-68
6.88586e-68
-2.48725e-67
8.95746e-67
-3.21623e-66
1.15133e-65
-4.10901e-65
1.46202e-64
-5.1861e-64
1.83398e-63
-6.46557e-63
2.27234e-62
-7.9613e-62
2.78057e-61
-9.68094e-61
3.3599e-60
-1.1624e-59
4.00861e-59
-1.37796e-58
4.7215e-58
-1.61255e-57
5.48943e-57
-1.8626e-56
6.2991e-56
-2.12324e-55
7.13301e-55
-2.38832e-54
7.96983e-54
-2.65055e-53
8.78506e-53
-2.9018e-52
9.55204e-52
-3.13344e-51
1.02432e-50
-3.33682e-50
1.08318e-49
-3.50374e-49
1.12932e-48
-3.62703e-48
1.1607e-47
-3.70099e-47
1.1758e-46
-3.72185e-46
1.17377e-45
-3.68808e-45
1.15451e-44
-3.60052e-44
1.11865e-43
-3.46238e-43
1.06757e-42
-3.27905e-42
1.00327e-41
-3.05775e-41
9.28289e-41
-2.80706e-40
8.45471e-40
-2.53636e-39
7.57841e-39
-2.25522e-38
6.6839e-38
-1.97284e-37
5.7991e-37
-1.69756e-36
4.9485e-36
-1.43646e-35
4.15212e-35
-1.19507e-34
3.4249e-34
-9.77284e-34
2.77652e-33
-7.85364e-33
2.21167e-32
-6.20058e-32
1.73059e-31
-4.80829e-31
1.32986e-30
-3.66125e-30
1.00332e-29
-2.73669e-29
7.42967e-29
-2.0075e-28
5.39843e-28
-1.44474e-27
3.8477e-27
-1.01974e-26
2.68928e-26
-7.05701e-26
1.84259e-25
-4.78671e-25
1.23717e-24
-3.18119e-24
8.13754e-24
-2.07072e-23
5.2415e-23
-1.31969e-22
3.30486e-22
-8.23142e-22
2.03899e-21
-5.02288e-21
1.23045e-20
-2.99727e-20
7.2596e-20
-1.74824e-19
4.18569e-19
-9.96284e-19
2.35735e-18
-5.54451e-18
1.2962e-17
-3.01178e-17
6.95487e-17
-1.59602e-16
3.6395e-16
-8.24645e-16
1.85645e-15
-4.15202e-15
9.22486e-15
-2.03587e-14
4.46269e-14
-9.71543e-14
2.10043e-13
-4.50919e-13
9.61153e-13
-2.03399e-12
4.27294e-12
-8.91009e-12
1.84404e-11
-3.78744e-11
7.71899e-11
-1.56086e-10
3.13119e-10
-6.23073e-10
1.2297e-09
-2.40678e-09
4.67079e-09
-8.98665e-09
1.71395e-08
-3.23983e-08
6.0688e-08
-1.12634e-07
2.07082e-07
-3.77093e-07
6.79989e-07
-1.214e-06
2.14539e-06
-3.75207e-06
6.4925e-06
-1.11128e-05
1.88101e-05
-3.14775e-05
5.20621e-05
-8.5079e-05
0.000137328
-0.000218865
0.00034428
-0.000534303
0.000817731
-0.00123359
0.00183335
-0.00268275
0.0038628
-0.00546896
0.00760763
-0.0103884
0.0139115
-0.018248
0.0234151
-0.0293448
0.0358507
-0.0425983
0.0490861
-0.0546479
0.0584877
-0.0597552
0.0576659
-0.0516602
0.0415826
-0.0278456
0.0115358
0.00559217
-0.0212754
0.0330731
-0.0388441
0.0372911
-0.0284427
0.0139127
0.00320742
-0.0188999
0.0291653
-0.0311615
0.0242054
-0.0102603
-0.00638377
0.0202966
-0.0266958
0.0232603
-0.0112425
-0.00470753
0.0181586
-0.0234825
0.0183841
-0.00518443
-0.0099495
0.0197373
-0.0193513
0.00904961
0.00566757
-0.0167712
0.0180787
-0.00891785
-0.00520444
0.0156652
-0.0159751
0.00603411
0.00753205
-0.0155613
0.0125783
-0.000805579
-0.0111576
0.0144673
-0.00671765
-0.00597865
0.0135383
-0.00991954
-0.00176914
0.0116026
-0.0111581
0.000940474
0.00980997
-0.0112905
0.00222728
0.00868369
-0.0108955
0.00232561
0.00833611
-0.0102011
0.00142089
0.00862908
-0.00913566
-0.000368874
0.00922515
-0.00741951
-0.00288575
0.00957335
-0.00471915
-0.00573112
0.00890635
-0.000883187
-0.00811444
0.00650737
0.0035371
-0.00861407
0.00184057
0.00755941
-0.00664128
-0.00308875
0.00738861
0.00044403
-0.00953124
0.0072366
0.00161362
-0.00149326
-0.0100628
0.0182897
-0.0145051
0.0106085
-0.0202282
0.0359439
-0.0409776
0.0374052
-0.0426623
0.0583915
-0.0656901
0.0572926
-0.0500392
0.0531315
-0.0494335
0.0270153
-0.00354297
-0.00502054
0.0131544
-0.0337938
0.0470905
-0.0359837
0.0201283
-0.0162743
0.00498534
0.0227886
-0.036828
0.0253407
-0.0177796
0.0181991
0.00222959
-0.0300756
0.0273161
-0.0126922
0.0153009
-0.00457486
-0.0272356
0.0284711
-0.00572906
0.00757795
-0.00223413
-0.0307324
0.0247463
0.00721873
0.00142304
0.0045572
-0.036919
0.00525322
0.0232332
0.00703359
0.0192206
-0.0292592
-0.0387459
0.00534757
0.0128171
0.0480475
0.0456597
-0.025033
-0.0561376
-0.0821055
-0.0733708
0.0396498
0.171035
0.323911
0.514236
0.651149
0.761821
0.870596
0.916366
0.94708
0.988339
0.986901
0.986861
1.00821
0.997822
0.99111
1.00906
1.00035
0.990772
1.00742
1.00289
0.990428
1.00472
1.00573
0.991087
1.00089
1.0081
0.993524
0.996411
1.0087
0.998022
0.992659
1.0063
1.00362
0.991794
1.00079
1.0077
0.995446
0.994524
1.00696
1.00246
0.992099
1.00059
1.00764
0.996813
0.993401
1.00513
1.00519
0.993576
0.996256
1.0072
1.00246
0.992373
0.998529
1.00785
1.00083
0.992007
0.999428
1.00812
1.00072
0.991754
0.998693
1.00831
1.00236
0.991807
0.996111
1.00766
1.00582
0.993574
0.992061
1.00415
1.00978
0.99938
0.989432
0.995942
1.00928
1.00908
0.995011
0.987345
0.997606
1.01218
1.011
0.994605
0.983732
0.992909
1.01221
1.01884
1.00366
0.981971
0.977301
0.996754
1.02323
1.03121
1.01021
0.974605
0.952758
0.965498
1.01057
1.06286
1.08808
1.05983
0.97027
0.830735
0.664486
0.496922
0.347911
0.228369
0.140695
0.0814066
0.0442362
0.0225567
0.010773
0.00480294
0.00198777
0.000756615
0.000260591
7.86666e-05
1.92793e-05
2.84694e-06
-4.91485e-07
-6.31508e-07
-3.25418e-07
-1.22721e-07
-3.60404e-08
-7.54247e-09
-4.83597e-10
5.00198e-10
3.18243e-10
1.20113e-10
3.22238e-11
5.2544e-12
-3.21759e-13
-6.38053e-13
-2.84525e-13
-8.1584e-14
-1.43079e-14
2.13888e-16
1.29781e-15
5.76234e-16
1.54759e-16
2.28504e-17
-2.15324e-18
-2.71232e-18
-9.9891e-19
-2.1843e-19
-1.70082e-20
9.02897e-21
4.92926e-21
1.34707e-21
1.90154e-22
-1.88557e-23
-2.04912e-23
-6.64678e-24
-1.16661e-24
-2.10242e-28
7.65579e-26
2.84338e-26
5.53626e-27
2.10497e-28
-2.71428e-28
-1.09903e-28
-2.21886e-29
-1.09886e-30
9.50735e-31
3.91923e-31
7.75732e-32
3.3845e-33
-3.33227e-33
-1.29725e-33
-2.38338e-34
-5.22108e-36
1.14861e-35
3.96388e-36
6.3625e-37
-1.23826e-38
-3.76923e-38
-1.10258e-38
-1.42231e-39
1.36217e-40
1.14044e-40
2.73175e-41
2.40106e-42
-6.51803e-43
-3.09791e-43
-5.82731e-44
-1.80267e-45
2.28681e-45
7.37136e-46
1.00212e-46
-6.44596e-48
-6.45674e-48
-1.48927e-48
-1.13863e-49
3.64934e-50
1.50129e-50
2.41168e-51
-2.00514e-53
-1.11263e-52
-2.84739e-53
-2.64995e-54
5.31836e-55
2.50366e-55
4.18661e-56
1.92386e-58
-1.69323e-57
-4.34825e-58
-3.95335e-59
7.84833e-60
3.53875e-60
5.55674e-61
-5.01091e-63
-2.31747e-62
-5.40087e-63
-3.9406e-64
1.14828e-64
4.23817e-65
5.61952e-66
-2.86928e-67
-2.78264e-67
-5.38102e-68
-2.08509e-69
1.50454e-69
4.19366e-70
4.04015e-71
-6.03192e-72
-2.80202e-72
-4.10095e-73
8.20581e-75
1.62335e-74
3.27659e-75
1.51869e-76
-8.00346e-77
-2.2498e-77
-2.11024e-78
3.10101e-79
1.36938e-79
1.86221e-80
-6.26161e-82
-7.4585e-82
-1.34965e-82
-3.68313e-84
3.61313e-84
8.60856e-85
6.0309e-86
-1.51255e-86
-4.96996e-87
-5.25764e-88
4.9925e-89
2.63022e-89
3.68234e-90
-7.97869e-92
-1.28143e-91
-2.26788e-92
-5.53994e-94
5.7312e-94
1.27264e-94
7.4716e-96
-2.32436e-96
-6.62273e-97
-5.78641e-98
8.28248e-99
3.22746e-99
3.66774e-100
-2.3709e-101
-1.48107e-101
-2.06866e-102
3.50023e-104
6.41737e-104
1.074e-104
1.79249e-106
-2.6264e-106
-5.22319e-107
-2.23451e-108
1.01303e-108
2.40426e-109
1.55133e-110
-3.66117e-111
-1.05459e-111
-8.82388e-113
1.2249e-113
4.42895e-114
4.48654e-115
-3.6981e-116
-1.78706e-116
-2.11135e-117
9.46273e-119
6.94643e-119
9.36091e-120
-1.63282e-121
-2.60663e-121
-3.95132e-122
-1.46704e-124
9.45883e-124
1.59888e-124
3.32263e-126
-3.32397e-126
-6.23209e-127
-2.18096e-128
1.13259e-128
2.34835e-129
1.10644e-130
-3.74587e-131
-8.57869e-132
-4.94383e-133
1.20376e-133
3.04503e-134
2.03587e-135
-3.76232e-136
-1.05219e-136
-7.89363e-138
1.14485e-138
3.54506e-139
2.91621e-140
-3.39555e-141
-1.16622e-141
-1.03417e-142
9.82927e-144
3.75048e-144
3.53784e-145
-2.78164e-146
-1.18034e-146
-1.1716e-147
7.71183e-149
3.63869e-149
3.76558e-150
-2.10017e-151
-1.09966e-151
-1.17689e-152
5.63711e-154
3.26028e-154
3.58213e-155
-1.49742e-156
-9.48857e-157
-1.06306e-157
3.95512e-159
2.71219e-159
3.07879e-160
-1.04391e-161
-7.61715e-162
-8.70807e-163
2.76591e-164
2.10262e-164
2.40668e-165
-7.38148e-167
-5.70598e-167
-6.502e-168
1.98706e-169
1.52253e-169
1.71762e-170
-5.39137e-172
-3.99485e-172
-4.43738e-173
1.47028e-174
1.03072e-174
1.12117e-175
-4.01362e-177
-2.6149e-177
-2.77036e-178
1.09173e-179
6.52231e-180
6.6934e-181
-2.94596e-182
-1.59921e-182
-1.58081e-183
7.8562e-185
3.85373e-185
3.64793e-186
-2.06418e-187
-9.12479e-188
-8.22047e-189
5.33117e-190
2.12234e-190
1.80755e-191
-1.35116e-192
-4.84764e-193
-3.87412e-194
3.3565e-195
1.087e-195
8.08253e-197
-8.16613e-198
-2.39202e-198
-1.63835e-199
1.94478e-200
5.16389e-201
3.21837e-202
-4.53218e-203
-1.09319e-203
-6.10455e-205
1.03334e-205
2.26846e-206
1.112e-207
-2.30482e-208
-4.61194e-209
-1.92879e-210
5.02875e-211
9.18171e-212
3.13925e-213
-1.07326e-213
-1.78893e-214
-4.6598e-216
2.24059e-216
3.40874e-217
5.89299e-219
-4.57536e-219
-6.34704e-220
-4.92809e-222
9.1386e-222
1.15371e-222
-3.14084e-225
-1.78525e-224
-2.04478e-225
2.95485e-227
3.4107e-227
3.5281e-228
-9.81406e-230
-6.37172e-230
-5.91426e-231
2.56693e-232
1.16375e-232
9.60566e-234
-5.96459e-235
-2.07752e-235
-1.50568e-236
1.28459e-237
3.62392e-238
2.2647e-239
-2.61574e-240
-6.17414e-241
-3.23882e-242
5.09091e-243
1.02686e-243
4.33485e-245
-9.53262e-246
-1.66603e-246
-5.26181e-248
1.72454e-248
2.63457e-249
5.3583e-251
-3.02275e-251
-4.05588e-252
-3.3219e-254
5.14325e-254
6.06932e-255
-3.19165e-257
-8.50647e-257
-8.80978e-258
1.81294e-259
1.36873e-259
1.23677e-260
-4.77806e-262
-2.14376e-262
-1.67215e-263
1.01688e-264
3.2691e-265
2.16329e-266
-1.93685e-267
-4.85355e-268
-2.64995e-269
3.42937e-270
7.01362e-271
3.01601e-272
-5.74821e-273
-9.85867e-274
-3.06579e-275
9.21329e-276
1.34671e-276
2.49779e-278
-1.42067e-278
-1.78521e-279
-8.78872e-282
2.11563e-281
2.29177e-282
-2.37619e-284
-3.05029e-284
-2.84057e-285
8.01347e-287
4.26476e-287
3.38399e-288
-1.69293e-289
-5.78787e-290
-3.84737e-291
3.01326e-292
7.62794e-293
4.12525e-294
-4.8674e-295
-9.76242e-296
-4.08032e-297
7.35375e-298
1.21273e-298
3.54704e-300
-1.05885e-300
-1.1998e-301
)
;

boundaryField
{
    sides
    {
        type            zeroGradient;
    }
    empty
    {
        type            empty;
    }
}


// ************************************************************************* //
