/*--------------------------------*- C++ -*----------------------------------*\
| =========                 |                                                 |
| \\      /  F ield         | OpenFOAM: The Open Source CFD Toolbox           |
|  \\    /   O peration     | Version:  2312                                  |
|   \\  /    A nd           | Website:  www.openfoam.com                      |
|    \\/     M anipulation  |                                                 |
\*---------------------------------------------------------------------------*/
FoamFile
{
    version     2.0;
    format      ascii;
    arch        "LSB;label=32;scalar=64";
    class       volScalarField;
    location    "4.5";
    object      T;
}
// * * * * * * * * * * * * * * * * * * * * * * * * * * * * * * * * * * * * * //

dimensions      [0 0 0 1 0 0 0];

internalField   nonuniform List<scalar> 
1000
(
0
0
0
0
0
0
0
0
0
0
0
0
0
0
0
0
0
0
0
0
0
0
0
0
0
0
0
0
0
0
0
0
0
0
0
0
0
0
0
0
0
0
0
0
0
0
0
0
0
0
0
0
0
0
0
0
0
0
0
0
0
0
0
0
0
0
0
0
0
0
0
0
0
0
0
0
0
0
0
0
0
0
0
0
0
0
0
0
0
0
0
0
0
0
0
0
0
0
0
0
0
0
0
0
0
0
0
0
0
0
0
0
0
0
0
0
0
0
0
0
0
0
0
0
0
0
0
0
0
0
0
0
0
0
0
0
0
0
0
0
0
0
0
0
0
0
0
0
0
0
0
0
0
0
0
0
0
0
0
0
0
0
0
0
0
0
0
0
0
0
0
0
0
0
0
0
0
0
0
0
0
0
0
0
0
0
0
0
0
0
0
0
0
0
0
0
0
0
0
0
0
0
0
0
0
0
0
0
0
0
0
0
0
0
0
0
0
0
0
0
0
0
0
0
0
0
0
0
0
0
0
0
0
0
0
0
0
0
0
0
0
0
0
0
0
0
0
0
0
0
0
0
0
0
0
0
0
0
0
0
0
0
0
0
0
0
0
0
0
0
0
0
0
0
0
0
0
0
0
0
0
0
0
0
0
0
0
0
0
0
0
0
0
0
0
0
0
0
0
0
0
0
0
0
0
0
0
0
0
0
0
0
0
0
0
0
0
0
0
0
0
0
0
0
0
0
0
0
0
0
0
0
0
0
0
0
0
0
0
0
0
0
0
0
0
0
0
0
0
0
0
0
0
0
0
0
0
0
0
0
0
0
0
0
0
0
0
0
0
0
0
0
0
0
0
0
0
0
0
0
0
0
0
0
0
0
0
0
0
0
0
0
0
0
0
0
0
0
0
0
0
0
0
0
0
0
0
0
0
0
0
0
0
0
0
0
0
0
0
0
0
0
0
0
0
0
0
0
0
0
0
0
0
0
0
0
0
0
0
0
0
0
0
0
0
0
0
0
0
0
3.1654e-129
9.0962e-127
1.30726e-124
1.25278e-122
9.00639e-121
5.18104e-119
2.48429e-117
1.02128e-115
3.67445e-114
1.17541e-112
3.3848e-111
8.86305e-110
2.12788e-108
4.71681e-107
9.71107e-106
1.86648e-104
3.36398e-103
5.70761e-102
9.14816e-101
1.38942e-99
2.0052e-98
2.75672e-97
3.61849e-96
4.5442e-95
5.47024e-94
6.32306e-93
7.02936e-92
7.52689e-91
7.77361e-90
7.75338e-89
7.47718e-88
6.97984e-87
6.31345e-86
5.53892e-85
4.71759e-84
3.90416e-83
3.14197e-82
2.46081e-81
1.87705e-80
1.39538e-79
1.01162e-78
7.15678e-78
4.94374e-77
3.33638e-76
2.20097e-75
1.42001e-74
8.96456e-74
5.54022e-73
3.35338e-72
1.98878e-71
1.15616e-70
6.591e-70
3.68598e-69
2.02295e-68
1.08993e-67
5.76698e-67
2.9976e-66
1.53114e-65
7.68785e-65
3.79553e-64
1.84308e-63
8.80518e-63
4.13974e-62
1.91585e-61
8.72997e-61
3.91772e-60
1.73191e-59
7.54378e-59
3.23833e-58
1.3703e-57
5.71695e-57
2.35209e-56
9.54496e-56
3.82125e-55
1.50949e-54
5.88477e-54
2.26453e-53
8.60307e-53
3.22721e-52
1.19556e-51
4.37478e-51
1.58143e-50
5.64828e-50
1.99353e-49
6.95393e-49
2.39774e-48
8.17329e-48
2.75471e-47
9.18107e-47
3.02627e-46
9.86673e-46
3.18232e-45
1.01548e-44
3.20632e-44
1.00185e-43
3.09817e-43
9.48341e-43
2.87361e-42
8.62065e-42
2.56064e-41
7.53174e-41
2.19394e-40
6.32967e-40
1.80886e-39
5.12077e-39
1.4362e-38
3.99102e-38
1.09895e-37
2.99874e-37
8.10963e-37
2.17371e-36
5.77534e-36
1.52112e-35
3.97187e-35
1.02826e-34
2.63953e-34
6.71883e-34
1.69605e-33
4.24614e-33
1.05436e-32
2.59691e-32
6.34492e-32
1.5379e-31
3.69819e-31
8.8235e-31
2.08887e-30
4.90712e-30
1.14397e-29
2.64671e-29
6.07747e-29
1.38514e-28
3.1336e-28
7.03716e-28
1.56885e-27
3.47232e-27
7.63023e-27
1.66478e-26
3.60664e-26
7.75888e-26
1.65755e-25
3.51666e-25
7.40988e-25
1.55071e-24
3.22339e-24
6.65544e-24
1.36504e-23
2.78123e-23
5.62955e-23
1.13208e-22
2.26185e-22
4.4901e-22
8.85672e-22
1.73593e-21
3.38109e-21
6.54428e-21
1.25883e-20
2.40652e-20
4.57245e-20
8.63499e-20
1.62087e-19
3.02427e-19
5.60921e-19
1.0342e-18
1.89561e-18
3.45421e-18
6.25781e-18
1.12716e-17
2.01861e-17
3.59453e-17
6.36454e-17
1.12058e-16
1.96196e-16
3.41599e-16
5.91482e-16
1.01854e-15
1.74439e-15
2.97132e-15
5.03397e-15
8.48285e-15
1.42186e-14
2.37067e-14
3.93184e-14
6.48702e-14
1.06472e-13
1.7385e-13
2.8241e-13
4.56419e-13
7.33903e-13
1.17413e-12
1.86902e-12
2.96032e-12
4.66557e-12
7.31687e-12
1.14186e-11
1.77328e-11
2.74051e-11
4.21492e-11
6.4515e-11
9.82783e-11
1.49002e-10
2.24841e-10
3.3769e-10
5.04815e-10
7.51155e-10
1.11255e-09
1.64027e-09
2.40728e-09
3.51694e-09
5.11493e-09
7.40564e-09
1.06744e-08
1.53177e-08
2.18839e-08
3.11275e-08
4.40823e-08
6.21577e-08
8.72662e-08
1.21991e-07
1.69805e-07
2.35355e-07
3.24831e-07
4.46439e-07
6.11008e-07
8.32764e-07
1.13031e-06
1.52785e-06
2.05676e-06
2.7575e-06
3.682e-06
4.89667e-06
6.48597e-06
8.55687e-06
1.12443e-05
1.47174e-05
1.91879e-05
2.49187e-05
3.22356e-05
4.15402e-05
5.33252e-05
6.81925e-05
8.68741e-05
0.000110256
0.000139406
0.000175605
0.000220384
0.00027556
0.000343287
0.000426099
0.000526971
0.000649372
0.000797334
0.000975522
0.0011893
0.00144482
0.0017491
0.00211009
0.00253678
0.00303926
0.00362884
0.00431808
0.0051209
0.00605263
0.00713007
0.00837153
0.00979686
0.0114275
0.0132863
0.0153977
0.0177877
0.0204835
0.0235136
0.0269075
0.0306959
0.0349099
0.0395813
0.0447419
0.0504235
0.0566574
0.0634741
0.0709029
0.0789717
0.0877061
0.0971295
0.107262
0.118122
0.129723
0.142074
0.15518
0.169044
0.18366
0.199019
0.215109
0.231907
0.249391
0.26753
0.286287
0.305624
0.325495
0.34585
0.366635
0.387794
0.409267
0.430989
0.452897
0.474923
0.497
0.519061
0.541039
0.562866
0.584479
0.605815
0.626815
0.64742
0.66758
0.687244
0.706367
0.72491
0.742838
0.760119
0.776728
0.792645
0.807854
0.822345
0.836112
0.849152
0.86147
0.873071
0.883966
0.894169
0.903697
0.912569
0.920807
0.928434
0.935476
0.94196
0.947911
0.953359
0.958332
0.962857
0.966962
0.970675
0.974022
0.977029
0.979721
0.982119
0.984247
0.986125
0.987771
0.989203
0.990435
0.991481
0.992353
0.993061
0.993611
0.994009
0.99426
0.994364
0.99432
0.994127
0.99378
0.99327
0.99259
0.991727
0.990669
0.989399
0.9879
0.986153
0.984136
0.981825
0.979196
0.976222
0.972874
0.969124
0.964943
0.960298
0.95516
0.949496
0.943277
0.936473
0.929054
0.920994
0.912266
0.902848
0.89272
0.881863
0.870266
0.857917
0.844812
0.830951
0.816336
0.800977
0.784889
0.76809
0.750607
0.732469
0.713712
0.694375
0.674505
0.65415
0.633364
0.612205
0.590733
0.569011
0.547103
0.525077
0.503
0.480939
0.458961
0.437134
0.415521
0.394185
0.373185
0.35258
0.33242
0.312756
0.293633
0.27509
0.257162
0.239881
0.223272
0.207355
0.192145
0.177654
0.163888
0.150847
0.138529
0.126927
0.116031
0.105827
0.096298
0.0874244
0.0791845
0.0715544
0.0645088
0.0580211
0.0520637
0.0466083
0.0416265
0.0370897
0.0329695
0.0292379
0.0258673
0.0228313
0.0201039
0.0176604
0.0154771
0.0135317
0.0118027
0.0102703
0.00891563
0.00772132
0.00667117
0.00575019
0.00494463
0.00424186
0.00363037
0.00309969
0.00264033
0.00224375
0.00190223
0.0016089
0.0013576
0.00114286
0.000959828
0.000804218
0.000672258
0.000560636
0.000466455
0.000387191
0.000320646
0.000264921
0.000218372
0.000179584
0.000147344
0.000120612
9.85021e-05
8.02598e-05
6.52454e-05
5.2918e-05
4.28212e-05
3.45716e-05
2.78475e-05
2.238e-05
1.79451e-05
1.43562e-05
1.14591e-05
9.12589e-06
7.25132e-06
5.74882e-06
4.54737e-06
3.58893e-06
2.82614e-06
2.2205e-06
1.74074e-06
1.3616e-06
1.06267e-06
8.27521e-07
6.4298e-07
4.98487e-07
3.85612e-07
2.97638e-07
2.2923e-07
1.76158e-07
1.35076e-07
1.03349e-07
7.89016e-08
6.01062e-08
4.56888e-08
3.46543e-08
2.6228e-08
1.98078e-08
1.49269e-08
1.12246e-08
8.42249e-09
6.30637e-09
4.71184e-09
3.51298e-09
2.61359e-09
1.94034e-09
1.43747e-09
1.06267e-09
7.83945e-10
5.7711e-10
4.23954e-10
3.10792e-10
2.27359e-10
1.65978e-10
1.20916e-10
8.79052e-11
6.37744e-11
4.61721e-11
3.33593e-11
2.40525e-11
1.73066e-11
1.24272e-11
8.90528e-12
6.36846e-12
4.54504e-12
3.23712e-12
2.30091e-12
1.63215e-12
1.15544e-12
8.16315e-13
5.75567e-13
4.05008e-13
2.84422e-13
1.9934e-13
1.39432e-13
9.73344e-14
6.78124e-14
)
;

boundaryField
{
    sides
    {
        type            zeroGradient;
    }
    empty
    {
        type            empty;
    }
}


// ************************************************************************* //
