/*--------------------------------*- C++ -*----------------------------------*\
| =========                 |                                                 |
| \\      /  F ield         | OpenFOAM: The Open Source CFD Toolbox           |
|  \\    /   O peration     | Version:  2312                                  |
|   \\  /    A nd           | Website:  www.openfoam.com                      |
|    \\/     M anipulation  |                                                 |
\*---------------------------------------------------------------------------*/
FoamFile
{
    version     2.0;
    format      ascii;
    arch        "LSB;label=32;scalar=64";
    class       volScalarField;
    location    "3.6";
    object      T;
}
// * * * * * * * * * * * * * * * * * * * * * * * * * * * * * * * * * * * * * //

dimensions      [0 0 0 1 0 0 0];

internalField   nonuniform List<scalar> 
1000
(
0
0
0
0
0
0
0
0
0
0
0
0
0
0
0
0
0
0
0
0
0
0
0
0
0
0
0
0
0
0
0
0
0
0
0
0
0
0
0
0
0
0
0
0
0
0
0
0
0
0
0
0
0
0
0
0
0
0
0
0
0
0
0
0
0
0
0
0
0
0
0
0
0
0
0
0
0
0
0
0
0
0
0
0
0
0
0
0
0
0
0
0
0
0
0
0
0
0
0
0
0
0
0
0
0
0
0
0
0
0
0
0
0
0
0
0
0
0
0
0
0
0
0
0
0
0
0
0
0
0
0
0
0
0
0
0
0
0
0
0
0
0
0
0
0
0
0
0
0
0
0
0
0
0
0
0
0
0
0
0
0
0
0
0
0
0
0
0
0
0
0
0
0
0
0
0
0
0
0
0
0
0
0
0
0
0
0
0
0
0
0
0
0
0
0
0
0
0
0
0
0
0
0
0
0
0
0
0
0
0
0
0
0
0
0
0
0
0
0
0
0
0
0
0
0
0
0
0
0
0
0
0
0
0
0
0
0
0
0
0
0
0
0
0
0
0
0
0
0
0
0
0
0
0
0
0
0
0
0
0
0
0
0
0
0
0
0
0
0
0
0
0
0
0
0
0
0
0
0
0
0
0
0
0
0
0
0
0
0
0
0
0
0
0
0
0
0
0
0
0
0
0
0
0
0
0
0
0
0
0
0
0
0
0
0
0
0
0
0
0
0
0
0
0
0
0
0
0
0
0
0
0
0
0
0
0
0
0
0
0
0
0
0
0
0
0
0
0
0
0
0
0
0
0
0
0
0
0
0
0
0
0
0
0
0
0
0
0
0
0
0
0
0
0
0
0
0
0
0
0
0
0
0
0
0
0
0
0
0
0
0
0
0
0
0
0
0
0
0
0
0
0
0
0
7.87909e-134
-5.2892e-118
3.17817e-110
-1.83213e-106
-2.46838e-104
-1.36896e-102
-2.57484e-101
1.61432e-99
1.6675e-97
8.53911e-96
3.18046e-94
9.55045e-93
2.42675e-91
5.36985e-90
1.05497e-88
1.86632e-87
3.00533e-86
4.44324e-85
6.07378e-84
7.72168e-83
9.17509e-82
1.02329e-80
1.07514e-79
1.06758e-78
1.00467e-77
8.9825e-77
7.64659e-76
6.20959e-75
4.8185e-74
3.57808e-73
2.54579e-72
1.73737e-71
1.13823e-70
7.16335e-70
4.33233e-69
2.51822e-68
1.40646e-67
7.54228e-67
3.87811e-66
1.90743e-65
8.93876e-65
3.96505e-64
1.64563e-63
6.24964e-63
2.06488e-62
5.06285e-62
9.72412e-63
-9.99583e-61
-9.16035e-60
-6.0687e-59
-3.48515e-58
-1.83472e-57
-9.07702e-57
-4.27707e-56
-1.93503e-55
-8.4503e-55
-3.57524e-54
-1.46947e-53
-5.87937e-53
-2.29359e-52
-8.73529e-52
-3.25149e-51
-1.18393e-50
-4.22033e-50
-1.47383e-49
-5.04552e-49
-1.69423e-48
-5.58323e-48
-1.80667e-47
-5.74346e-47
-1.79471e-46
-5.51516e-46
-1.66758e-45
-4.96357e-45
-1.45511e-44
-4.20338e-44
-1.19702e-43
-3.36196e-43
-9.3162e-43
-2.54793e-42
-6.87951e-42
-1.83418e-41
-4.82946e-41
-1.2559e-40
-3.22555e-40
-8.18107e-40
-2.04887e-39
-5.06562e-39
-1.23616e-38
-2.97672e-38
-7.07174e-38
-1.65712e-37
-3.82965e-37
-8.72783e-37
-1.96157e-36
-4.34823e-36
-9.50939e-36
-2.05268e-35
-4.37614e-35
-9.22205e-35
-1.92297e-34
-3.97235e-34
-8.13976e-34
-1.65667e-33
-3.353e-33
-6.75457e-33
-1.35497e-32
-2.70636e-32
-5.37813e-32
-1.06182e-31
-2.07852e-31
-4.02373e-31
-7.68005e-31
-1.44035e-30
-2.64391e-30
-4.72859e-30
-8.19412e-30
-1.3657e-29
-2.16591e-29
-3.21178e-29
-4.30641e-29
-4.8107e-29
-3.18451e-29
3.75991e-29
2.19262e-28
6.11762e-28
1.36151e-27
2.65148e-27
4.6387e-27
7.28168e-27
9.96265e-27
1.07698e-26
5.2882e-27
-1.51901e-26
-6.58721e-26
-1.7028e-25
-3.59544e-25
-6.64608e-25
-1.09285e-24
-1.57488e-24
-1.85999e-24
-1.33217e-24
1.28383e-24
8.3449e-24
2.38187e-23
5.38051e-23
1.06762e-22
1.92862e-22
3.21475e-22
4.95277e-22
6.98907e-22
8.79909e-22
9.20176e-22
5.98381e-22
-4.51079e-22
-2.76749e-21
-7.05089e-21
-1.40535e-20
-2.42939e-20
-3.74832e-20
-5.1533e-20
-6.10305e-20
-5.51406e-20
-1.50884e-20
8.82732e-20
2.95724e-19
6.57854e-19
1.2272e-18
2.04022e-18
3.08432e-18
4.24494e-18
5.2304e-18
5.47744e-18
4.04514e-18
-4.81892e-19
-1.00297e-17
-2.69274e-17
-5.35099e-17
-9.12063e-17
-1.38871e-16
-1.90361e-16
-2.32078e-16
-2.42306e-16
-1.83426e-16
3.21831e-17
6.25502e-16
1.8629e-15
3.53622e-15
4.52334e-15
8.97701e-16
-1.0783e-14
-2.17598e-14
-1.40415e-14
2.53727e-14
6.69329e-14
4.78407e-14
-6.55452e-14
-1.86299e-13
-1.32786e-13
1.70948e-13
4.93265e-13
3.70035e-13
-4.13805e-13
-1.29596e-12
-1.06744e-12
9.23902e-13
3.36312e-12
3.10776e-12
-1.70483e-12
-8.63708e-12
-9.0332e-12
1.92456e-12
2.0553e-11
2.6476e-11
3.50155e-12
-4.51565e-11
-7.41696e-11
-3.38975e-11
8.42109e-11
1.95194e-10
1.53933e-10
-1.09165e-10
-4.65983e-10
-5.27505e-10
-4.82414e-11
9.10896e-10
1.55519e-09
9.60726e-10
-1.226e-09
-3.89033e-09
-4.14223e-09
-3.7083e-10
7.05435e-09
1.27189e-08
9.5133e-09
-5.92251e-09
-2.81597e-08
-3.80739e-08
-1.90915e-08
3.37013e-08
9.73226e-08
1.10696e-07
3.79073e-08
-1.29046e-07
-3.12285e-07
-3.33854e-07
-1.03506e-07
4.05187e-07
9.65125e-07
1.07293e-06
4.44164e-07
-1.03618e-06
-2.82281e-06
-3.59422e-06
-2.275e-06
1.69599e-06
7.44991e-06
1.17628e-05
1.07177e-05
1.94378e-06
-1.47369e-05
-3.38773e-05
-4.31499e-05
-3.24594e-05
5.0584e-06
6.73159e-05
0.000133864
0.000163083
0.000125352
-2.9087e-06
-0.000222166
-0.000482538
-0.000662872
-0.000635493
-0.000318065
0.00036129
0.00135551
0.00245083
0.00321158
0.00315346
0.00199478
-0.000641475
-0.00485936
-0.0103107
-0.0160868
-0.0205847
-0.0214527
-0.0178241
-0.00757955
0.011259
0.0401903
0.0800412
0.130827
0.19171
0.261059
0.33661
0.415688
0.495469
0.573243
0.64663
0.713751
0.77331
0.824621
0.867556
0.902458
0.930017
0.95115
0.966879
0.978232
0.986167
0.991531
0.995027
0.997219
0.998533
0.999283
0.999684
0.999883
0.99997
0.999998
1
1
1
1
1
1
1
1
1
1
1
1
1
1
1
1
1
1
1
1
1
1
1
1
1
1
1
1
1
0.999999
0.999999
1
1
1
1
1
0.999998
0.999993
0.999988
0.999989
0.999998
1.00001
1.00003
1.00004
1.00003
0.999995
0.999933
0.999866
0.999837
0.999875
1
1.00022
1.00048
1.00066
1.00064
1.00032
0.999637
0.998643
0.997548
0.996789
0.996849
0.998011
1.00065
1.00487
1.01032
1.01609
1.02058
1.02144
1.0178
1.00755
0.988692
0.959747
0.919883
0.869085
0.808194
0.738838
0.663285
0.58421
0.504433
0.426667
0.353289
0.286179
0.226631
0.175331
0.132405
0.0975131
0.0699613
0.0488339
0.0331097
0.021761
0.0138279
0.00846619
0.00497082
0.00278008
0.00146616
0.000717209
0.000315756
0.000117066
2.97654e-05
1.61765e-06
9.43866e-17
9.32327e-17
9.18727e-17
8.93486e-17
8.59121e-17
8.1771e-17
7.71098e-17
7.20935e-17
6.68678e-17
6.1558e-17
5.62706e-17
5.10933e-17
4.60961e-17
4.13335e-17
3.68451e-17
3.2658e-17
2.87882e-17
2.52422e-17
2.2019e-17
1.91111e-17
1.65063e-17
1.41886e-17
1.21397e-17
1.03395e-17
8.76708e-18
7.40149e-18
6.222e-18
5.20864e-18
4.3425e-18
3.60586e-18
2.98241e-18
2.45723e-18
2.01687e-18
1.64927e-18
1.34375e-18
1.09091e-18
8.82522e-19
7.11479e-19
5.71641e-19
4.57757e-19
3.65361e-19
2.90677e-19
2.30528e-19
1.82257e-19
1.43654e-19
1.12886e-19
8.84457e-20
6.90949e-20
5.3823e-20
4.1808e-20
3.23847e-20
2.50164e-20
1.92721e-20
1.48071e-20
1.13464e-20
8.67181e-21
6.61052e-21
5.02629e-21
3.81203e-21
2.88384e-21
2.17622e-21
1.63816e-21
1.23011e-21
9.21442e-22
6.88553e-22
5.13284e-22
3.8171e-22
2.83185e-22
2.0959e-22
1.54753e-22
1.13993e-22
8.37709e-23
6.14164e-23
4.49215e-23
3.27797e-23
2.38637e-23
1.73323e-23
1.25591e-23
9.07922e-24
6.54825e-24
4.71184e-24
3.38256e-24
2.42264e-24
1.73111e-24
1.2341e-24
8.77744e-25
6.22842e-25
4.40941e-25
3.11441e-25
2.19465e-25
1.54295e-25
1.08226e-25
7.57365e-26
5.28782e-26
3.68337e-26
2.55984e-26
1.77492e-26
1.22784e-26
8.47439e-27
5.83547e-27
4.00909e-27
2.74801e-27
1.8793e-27
1.28227e-27
8.72914e-28
5.92885e-28
4.01772e-28
2.71644e-28
1.83245e-28
1.23333e-28
8.28212e-29
5.54907e-29
3.70952e-29
2.47421e-29
1.64656e-29
1.0933e-29
7.24317e-30
4.7879e-30
3.15784e-30
2.0781e-30
1.3645e-30
8.93959e-31
5.84382e-31
3.81167e-31
2.4807e-31
1.61092e-31
1.0438e-31
6.74855e-32
4.35362e-32
2.80247e-32
1.80004e-32
1.15367e-32
7.37793e-33
4.70811e-33
2.99792e-33
1.90483e-33
1.2077e-33
7.6406e-34
4.82353e-34
3.03861e-34
1.91011e-34
1.19817e-34
7.49986e-35
4.68457e-35
2.9199e-35
1.81615e-35
1.12725e-35
6.98198e-36
4.31545e-36
2.66175e-36
1.63834e-36
1.00632e-36
6.16832e-37
3.77311e-37
2.30322e-37
1.40306e-37
8.52952e-38
5.17467e-38
3.13294e-38
1.89293e-38
1.14138e-38
6.86827e-39
4.12461e-39
2.47195e-39
1.47849e-39
8.8252e-40
5.25724e-40
3.12551e-40
1.85445e-40
1.0981e-40
6.4894e-41
3.82741e-41
2.25291e-41
1.3235e-41
7.75975e-42
4.54063e-42
2.65174e-42
)
;

boundaryField
{
    sides
    {
        type            zeroGradient;
    }
    empty
    {
        type            empty;
    }
}


// ************************************************************************* //
