/*--------------------------------*- C++ -*----------------------------------*\
| =========                 |                                                 |
| \\      /  F ield         | OpenFOAM: The Open Source CFD Toolbox           |
|  \\    /   O peration     | Version:  2312                                  |
|   \\  /    A nd           | Website:  www.openfoam.com                      |
|    \\/     M anipulation  |                                                 |
\*---------------------------------------------------------------------------*/
FoamFile
{
    version     2.0;
    format      ascii;
    arch        "LSB;label=32;scalar=64";
    class       volScalarField;
    location    "1.8";
    object      T;
}
// * * * * * * * * * * * * * * * * * * * * * * * * * * * * * * * * * * * * * //

dimensions      [0 0 0 1 0 0 0];

internalField   nonuniform List<scalar> 
1000
(
0
0
0
0
0
0
0
0
0
0
0
0
0
0
0
0
0
0
0
0
0
0
0
0
0
0
0
0
0
0
0
0
0
0
0
0
0
0
0
0
0
0
0
0
0
0
0
0
0
0
0
0
0
0
0
0
0
0
0
0
0
0
0
0
0
0
0
0
0
0
0
0
0
0
0
0
0
0
0
0
0
0
0
0
0
0
0
0
0
0
0
0
0
0
0
0
0
0
0
0
0
0
0
0
0
0
0
0
0
0
0
0
0
0
0
0
0
0
0
0
0
0
0
0
0
0
0
0
0
0
0
0
0
0
0
0
0
0
0
0
0
0
0
0
0
0
0
0
0
0
0
0
0
0
0
0
0
0
0
0
0
0
0
0
0
0
0
0
0
0
0
0
0
-4.94066e-324
2.96439e-323
-4.94066e-324
2.96439e-323
-4.94066e-324
2.96439e-323
-4.94066e-324
2.96439e-323
-4.94066e-324
2.96439e-323
-4.94066e-324
2.96439e-323
-4.94066e-324
2.96439e-323
-4.94066e-324
2.96439e-323
-4.94066e-324
2.96439e-323
-4.94066e-324
2.96439e-323
-4.94066e-324
2.96439e-323
-4.94066e-324
2.96439e-323
-4.94066e-324
2.96439e-323
-4.94066e-324
2.96439e-323
-4.94066e-324
2.96439e-323
-4.94066e-324
2.96439e-323
-4.94066e-324
2.96439e-323
-4.94066e-324
2.96439e-323
-4.94066e-324
2.96439e-323
-4.94066e-324
2.96439e-323
-4.94066e-324
2.96439e-323
-4.94066e-324
2.96439e-323
-4.94066e-324
2.96439e-323
-4.94066e-324
2.96439e-323
-4.94066e-324
2.96439e-323
-4.94066e-324
2.17389e-322
-2.55926e-321
3.31716e-320
-4.26655e-319
5.48897e-318
-7.06168e-317
9.08477e-316
-1.16877e-314
1.50362e-313
-1.93441e-312
2.48864e-311
-3.20162e-310
4.11895e-309
-5.29897e-308
6.81726e-307
-8.77028e-306
1.12832e-304
-1.45156e-303
1.86747e-302
-2.40247e-301
3.09084e-300
-3.97632e-299
5.11563e-298
-6.58118e-297
8.46685e-296
-1.08925e-294
1.40134e-293
-1.80281e-292
2.31935e-291
-2.98381e-290
3.83874e-289
-4.9385e-288
6.35345e-287
-8.17371e-286
1.05155e-284
-1.35283e-283
1.74041e-282
-2.23907e-281
2.88053e-280
-3.70587e-279
4.76755e-278
-6.13356e-277
7.89073e-276
-1.01516e-274
1.30599e-273
-1.68019e-272
2.16154e-271
-2.78087e-270
3.57754e-269
-4.60259e-268
5.92117e-267
-7.61772e-266
9.80008e-265
-1.2608e-263
1.62201e-262
-2.08674e-261
2.68458e-260
-3.45375e-259
4.44324e-258
-5.71625e-257
7.35401e-256
-9.4609e-255
1.21716e-253
-1.56586e-252
2.01452e-251
-2.59165e-250
3.33422e-249
-4.28942e-248
5.51844e-247
-7.09938e-246
9.13353e-245
-1.17501e-243
1.51168e-242
-1.94476e-241
2.50198e-240
-3.21876e-239
4.14101e-238
-5.32734e-237
6.85375e-236
-8.81725e-235
1.13436e-233
-1.45934e-232
1.87747e-231
-2.41535e-230
3.10738e-229
-3.99763e-228
5.14299e-227
-6.61646e-226
8.51213e-225
-1.09509e-223
1.40884e-222
-1.81247e-221
2.33175e-220
-2.99981e-219
3.85926e-218
-4.96497e-217
6.38744e-216
-8.2175e-215
1.05718e-213
-1.36007e-212
1.74973e-211
-2.25104e-210
2.89597e-209
-3.72569e-208
4.7931e-207
-6.16636e-206
7.93304e-205
-1.02059e-203
1.31299e-202
-1.68917e-201
2.17312e-200
-2.79574e-199
3.59672e-198
-4.62721e-197
5.95291e-196
-7.65846e-195
9.85262e-194
-1.26754e-192
1.6307e-191
-2.0979e-190
2.69897e-189
-3.47222e-188
4.46705e-187
-5.74685e-186
7.39337e-185
-9.51158e-184
1.22367e-182
-1.57426e-181
2.02529e-180
-2.60554e-179
3.35204e-178
-4.31241e-177
5.54795e-176
-7.13745e-175
9.18237e-174
-1.18131e-172
1.51977e-171
-1.95518e-170
2.51536e-169
-3.23601e-168
4.16315e-167
-5.3559e-166
6.8904e-165
-8.86453e-164
1.14042e-162
-1.46716e-161
1.88751e-160
-2.42829e-159
3.124e-158
-4.01905e-157
5.17051e-156
-6.65191e-155
8.55768e-154
-1.10095e-152
1.41638e-151
-1.82218e-150
2.34423e-149
-3.01588e-148
3.87993e-147
-4.99156e-146
6.42164e-145
-8.26149e-144
1.06284e-142
-1.36735e-141
1.7591e-140
-2.2631e-139
2.91148e-138
-3.74564e-137
4.81877e-136
-6.19937e-135
7.97552e-134
-1.02605e-132
1.32002e-131
-1.69821e-130
2.18476e-129
-2.8107e-128
3.61599e-127
-4.65197e-126
5.9848e-125
-7.69944e-124
9.9054e-123
-1.27433e-121
1.63944e-120
-2.10914e-119
2.71342e-118
-3.49082e-117
4.49096e-116
-5.77763e-115
7.43295e-114
-9.56251e-113
1.23022e-111
-1.58268e-110
2.03613e-109
-2.61949e-108
3.36999e-107
-4.3355e-106
5.57765e-105
-7.17566e-104
9.23154e-103
-1.18764e-101
1.5279e-100
-1.96565e-99
2.52882e-98
-3.25334e-97
3.37408e-96
7.31372e-96
-2.04651e-94
7.06394e-94
8.20753e-93
-1.2856e-91
-1.9594e-91
6.83957e-90
1.65146e-90
-3.30031e-88
3.03101e-88
1.61838e-86
-2.59907e-86
-7.8664e-85
1.24452e-84
4.0144e-83
-3.5479e-83
-2.12429e-81
-2.55187e-82
1.11775e-79
1.03914e-79
-4.52177e-78
-1.06445e-77
1.09587e-76
8.32262e-76
-1.28968e-75
-5.16887e-74
-4.53881e-74
1.53195e-72
6.617e-72
-1.54118e-71
-4.93381e-70
-5.4189e-70
9.10014e-69
7.62951e-68
8.15262e-69
-2.71144e-66
-1.10864e-65
1.16247e-65
5.89203e-64
1.74825e-63
-2.89289e-63
-1.04581e-61
-3.17487e-61
3.61055e-61
1.49661e-59
5.97967e-59
-1.27623e-59
-1.67685e-57
-2.54317e-56
-3.31227e-55
-4.073e-54
-4.89346e-53
-2.58555e-52
-1.94047e-52
2.33757e-51
3.35015e-50
3.61431e-49
3.62268e-48
3.48677e-47
3.24545e-46
2.92725e-45
2.56079e-44
2.17423e-43
1.79266e-42
1.43609e-41
1.11833e-40
8.46982e-40
6.24143e-39
4.47699e-38
3.12721e-37
2.12795e-36
1.41112e-35
9.12241e-35
5.75106e-34
3.53684e-33
2.12247e-32
1.24324e-31
7.11006e-31
3.97108e-30
2.16656e-29
1.15495e-28
6.01706e-28
3.06427e-27
1.52573e-26
7.42893e-26
3.53793e-25
1.64825e-24
7.51315e-24
3.3513e-23
1.46306e-22
6.25212e-22
2.61559e-21
1.07137e-20
4.29727e-20
1.688e-19
6.4942e-19
2.44732e-18
9.03454e-18
3.26744e-17
1.15778e-16
4.01964e-16
1.36748e-15
4.55875e-15
1.4893e-14
4.76814e-14
1.49608e-13
4.60057e-13
1.38652e-12
4.09545e-12
1.1856e-11
3.36384e-11
9.35371e-11
2.54903e-10
6.80764e-10
1.78169e-09
4.56939e-09
1.1483e-08
2.82743e-08
6.82083e-08
1.61196e-07
3.73169e-07
8.46141e-07
1.87895e-06
4.08575e-06
8.69862e-06
1.81295e-05
3.69833e-05
7.38302e-05
0.000144207
0.000275535
0.000514878
0.000940731
0.00168016
0.00293249
0.00500032
0.00832718
0.0135392
0.0214846
0.0332614
0.0502184
0.0739126
0.106005
0.148081
0.201401
0.266584
0.343289
0.429944
0.523607
0.620058
0.714142
0.800386
0.873786
0.930609
0.96909
0.99015
0.998168
0.999851
0.999996
1
1
1
1
1
1
1
1
1
1
1
1
1
1
1
1
1
1
1
1
1
1
1
1
1
1
1
1
1
1
1
1
1
1
1
1
1
1
1
1
1
1
1
1
1
1
1
1
1
1
1
1
1
1
1
1
1
1
1
1
1
1
1
0.999999
0.999998
0.999996
0.999991
0.999982
0.999963
0.999926
0.999856
0.999724
0.999484
0.999058
0.998317
0.997064
0.994993
0.991663
0.986446
0.978494
0.966708
0.949739
0.92603
0.893921
0.851825
0.798486
0.733285
0.656564
0.5699
0.476234
0.379788
0.285719
0.199496
0.126122
0.0693268
0.0308725
0.0098339
0.0018272
0.0001489
3.83623e-06
2.28415e-08
2.4137e-11
3.70589e-15
3.09729e-19
2.61963e-23
2.24247e-27
1.93644e-31
1.67963e-35
1.45817e-39
1.26418e-43
1.0934e-47
9.43379e-52
8.12321e-56
6.98549e-60
6.00323e-64
5.15847e-68
4.43358e-72
3.812e-76
3.27887e-80
2.82121e-84
2.42794e-88
2.0897e-92
1.7986e-96
1.54797e-100
1.33217e-104
1.14636e-108
9.86408e-113
8.48734e-117
7.30257e-121
6.28313e-125
5.40601e-129
4.65137e-133
4.0021e-137
3.44348e-141
2.96284e-145
2.54929e-149
2.19346e-153
1.88728e-157
1.62384e-161
1.39716e-165
1.20211e-169
1.03429e-173
8.89892e-178
7.65648e-182
6.58746e-186
5.66766e-190
4.87625e-194
4.19531e-198
3.60943e-202
3.10534e-206
2.67162e-210
2.29846e-214
1.97739e-218
1.70116e-222
1.4635e-226
1.25903e-230
1.08311e-234
9.3176e-239
8.01552e-243
6.89531e-247
5.93159e-251
5.10251e-255
4.38926e-259
3.77567e-263
3.24782e-267
2.79373e-271
2.4031e-275
2.06707e-279
1.778e-283
1.52935e-287
1.31545e-291
1.13146e-295
9.7319e-300
8.37052e-304
7.19951e-308
6.19225e-312
5.32586e-316
4.58098e-320
0
0
0
0
0
0
0
0
0
0
0
0
0
0
0
0
0
0
0
0
0
0
0
0
0
0
0
0
0
0
0
0
0
0
0
0
0
0
0
0
0
0
0
0
0
0
0
0
0
0
0
0
0
0
0
0
0
0
0
0
0
0
0
0
0
0
0
0
0
0
0
0
0
0
0
0
0
0
0
0
0
0
0
0
0
0
0
0
0
0
0
0
0
0
0
0
0
0
0
0
0
0
0
0
0
0
0
0
0
0
0
0
0
0
0
0
0
0
0
0
0
0
0
0
0
0
0
0
0
0
0
0
0
0
0
0
0
0
0
0
0
0
0
0
0
0
0
0
0
0
0
0
0
0
0
0
0
0
0
0
0
0
0
0
0
0
0
0
0
0
0
0
0
0
0
0
0
0
0
0
0
0
0
0
0
0
0
0
0
0
0
0
0
0
0
0
0
0
0
0
0
0
0
0
0
0
0
0
0
0
0
0
0
0
0
0
0
0
0
0
0
0
0
0
0
0
0
0
0
0
0
0
0
0
0
)
;

boundaryField
{
    sides
    {
        type            zeroGradient;
    }
    empty
    {
        type            empty;
    }
}


// ************************************************************************* //
