/*--------------------------------*- C++ -*----------------------------------*\
| =========                 |                                                 |
| \\      /  F ield         | OpenFOAM: The Open Source CFD Toolbox           |
|  \\    /   O peration     | Version:  2312                                  |
|   \\  /    A nd           | Website:  www.openfoam.com                      |
|    \\/     M anipulation  |                                                 |
\*---------------------------------------------------------------------------*/
FoamFile
{
    version     2.0;
    format      ascii;
    arch        "LSB;label=32;scalar=64";
    class       volScalarField;
    location    "4.1";
    object      T;
}
// * * * * * * * * * * * * * * * * * * * * * * * * * * * * * * * * * * * * * //

dimensions      [0 0 0 1 0 0 0];

internalField   nonuniform List<scalar> 
1000
(
0
0
0
0
0
0
0
0
0
0
0
0
0
0
0
0
0
0
0
0
0
0
0
0
0
0
0
0
0
0
0
0
0
0
0
0
0
0
0
0
0
0
0
0
0
0
0
0
0
0
0
0
0
0
0
0
0
0
0
0
0
0
0
0
0
0
0
0
0
0
0
0
0
0
0
0
0
0
0
0
0
0
0
0
0
0
0
0
0
0
0
0
0
0
0
0
0
0
0
0
0
0
0
0
0
0
0
0
0
0
0
0
0
0
0
0
0
0
0
0
0
0
0
0
0
0
0
0
0
0
0
0
0
0
0
0
0
0
0
0
0
0
0
0
0
0
0
0
0
0
0
0
0
0
0
0
0
0
0
0
0
0
0
0
0
0
0
0
0
0
0
0
0
-4.94066e-324
2.96439e-323
-4.94066e-324
2.96439e-323
-4.94066e-324
2.96439e-323
-4.94066e-324
2.96439e-323
-4.94066e-324
2.96439e-323
-4.94066e-324
2.96439e-323
-4.94066e-324
2.96439e-323
-4.94066e-324
2.96439e-323
-4.94066e-324
2.96439e-323
-4.94066e-324
2.96439e-323
-4.94066e-324
2.96439e-323
-4.94066e-324
2.96439e-323
-4.94066e-324
2.96439e-323
-4.94066e-324
2.96439e-323
-4.94066e-324
2.96439e-323
-4.94066e-324
2.96439e-323
-4.94066e-324
2.96439e-323
-4.94066e-324
2.96439e-323
-4.94066e-324
2.96439e-323
-4.94066e-324
2.96439e-323
-4.94066e-324
2.96439e-323
-4.94066e-324
2.96439e-323
-4.94066e-324
2.96439e-323
-4.94066e-324
2.96439e-323
-4.94066e-324
2.96439e-323
-4.94066e-324
2.96439e-323
-4.94066e-324
2.96439e-323
-4.94066e-324
2.96439e-323
-4.94066e-324
2.96439e-323
-4.94066e-324
2.96439e-323
-4.94066e-324
2.96439e-323
-4.94066e-324
2.96439e-323
-4.94066e-324
2.96439e-323
-4.94066e-324
2.96439e-323
-4.94066e-324
2.96439e-323
-4.94066e-324
2.96439e-323
-4.94066e-324
2.96439e-323
-4.94066e-324
2.96439e-323
-4.94066e-324
2.96439e-323
-4.94066e-324
2.96439e-323
-4.94066e-324
2.96439e-323
-4.94066e-324
2.96439e-323
-4.94066e-324
9.88131e-324
2.96439e-323
5.43472e-323
7.41098e-323
9.88131e-323
1.18576e-322
1.43279e-322
1.63042e-322
1.87745e-322
2.12448e-322
2.37152e-322
2.61855e-322
2.86558e-322
3.06321e-322
3.26083e-322
3.45846e-322
3.65609e-322
4.15015e-322
4.00193e-322
3.7549e-322
3.55727e-322
3.35965e-322
3.16202e-322
2.96439e-322
2.76677e-322
2.51973e-322
2.2727e-322
2.02567e-322
1.77864e-322
1.5316e-322
1.33398e-322
1.08694e-322
8.89318e-323
6.42285e-323
4.44659e-323
1.97626e-323
-4.94066e-324
-2.96439e-323
-4.94066e-323
-7.41098e-323
-9.38725e-323
-1.13635e-322
-1.38338e-322
-1.63042e-322
-2.76677e-322
-2.03555e-321
-2.4308e-320
-2.89527e-319
-3.27842e-318
-3.53054e-317
-3.63179e-316
-3.59325e-315
-3.45581e-314
-3.28376e-313
-3.15033e-312
-3.12811e-311
-3.27501e-310
-3.64597e-309
-4.29849e-308
-5.36716e-307
-7.16497e-306
-1.12287e-304
-2.27272e-303
-1.62292e-302
5.31411e-302
1.15796e-299
1.08823e-297
6.9273e-296
3.26302e-294
1.20541e-292
3.63356e-291
9.19449e-290
1.99486e-288
3.77205e-287
6.29715e-286
9.37894e-285
1.25703e-283
1.52681e-282
1.6903e-281
1.7122e-280
1.58897e-279
1.35365e-278
1.08895e-277
9.14238e-277
9.28745e-276
1.19906e-274
1.80339e-273
2.84303e-272
4.4653e-271
6.90315e-270
9.89081e-269
2.34087e-268
-4.59023e-268
-1.87556e-266
-4.42587e-265
-1.01337e-263
-2.19062e-262
-4.34552e-261
-7.82962e-260
-1.28006e-258
-1.9042e-257
-2.58807e-256
-3.22776e-255
-3.70923e-254
-3.94207e-253
-3.89766e-252
-3.65202e-251
-3.4193e-250
-3.51067e-249
-4.25058e-248
-5.99191e-247
-9.20722e-246
-1.45518e-244
-2.29857e-243
-3.6619e-242
-1.70945e-241
-1.47922e-242
4.99007e-240
1.11501e-238
2.41988e-237
5.23396e-236
1.08129e-234
2.07639e-233
3.66167e-232
5.90826e-231
8.72674e-230
1.18276e-228
1.47576e-227
1.70121e-226
1.81858e-225
1.8097e-224
1.68371e-223
1.47418e-222
1.2333e-221
1.02125e-220
8.91021e-220
8.7491e-219
9.84785e-218
1.23408e-216
1.62934e-215
2.20486e-214
2.66497e-213
4.72727e-213
-1.60806e-212
-5.81908e-211
-1.55516e-209
-4.24657e-208
-1.12098e-206
-2.73429e-205
-6.03718e-204
-1.19929e-202
-2.14558e-201
-3.47087e-200
-5.1028e-199
-6.85507e-198
-8.46202e-197
-9.65149e-196
-1.02286e-194
-1.01368e-193
-9.48199e-193
-8.49133e-192
-7.43351e-191
-6.56479e-190
-6.10761e-189
-6.2134e-188
-6.85605e-187
-7.96614e-186
-9.5413e-185
-1.19254e-183
-9.44289e-183
-9.66308e-183
6.74207e-182
1.18484e-180
1.47655e-179
1.84921e-178
2.4875e-177
3.42793e-176
4.45732e-175
5.02617e-174
4.97987e-173
6.33609e-172
1.13501e-170
1.95822e-169
2.70012e-168
2.8729e-167
2.26233e-166
1.47664e-165
1.46081e-164
3.16246e-163
9.42147e-162
9.33315e-161
3.70299e-161
-1.57774e-160
2.35209e-159
9.04826e-158
3.73468e-157
-7.27222e-157
-2.74943e-155
-3.42684e-155
4.58825e-154
1.77753e-153
-4.82678e-153
-1.93184e-151
-5.67445e-151
1.51412e-150
2.77108e-149
2.30701e-149
-4.12857e-148
-6.25399e-147
-2.45799e-146
-2.37591e-146
-2.95977e-146
-2.05959e-145
-1.95743e-144
-1.3645e-143
-7.6514e-143
-3.93339e-142
-2.09681e-141
-1.19438e-140
-6.73543e-140
-3.66371e-139
-2.36745e-138
-2.38632e-137
-3.39857e-136
-5.41225e-135
-8.63732e-134
-3.69787e-133
9.91259e-136
2.16106e-132
-1.8325e-132
-1.08643e-130
-1.82035e-129
-6.07172e-129
2.83502e-129
2.03151e-127
9.35982e-127
6.41453e-128
-2.24794e-125
-2.64927e-124
-3.48229e-124
1.61654e-123
3.27247e-122
1.07017e-121
-3.082e-122
-2.226e-120
-3.28582e-120
1.40001e-119
2.89065e-118
3.79354e-117
1.87023e-116
1.14027e-116
-2.20578e-115
-1.3552e-114
-8.23081e-115
1.64799e-113
2.40555e-112
1.20742e-111
8.30565e-112
-1.17634e-110
-1.66124e-109
-6.74829e-109
-3.29685e-109
7.86427e-108
9.72635e-107
2.7168e-106
-6.06027e-108
-4.70775e-105
-5.39922e-104
-1.8114e-103
-6.69844e-104
2.14557e-102
2.5256e-101
1.01556e-100
6.54055e-101
-8.33131e-100
-1.02675e-98
-7.63313e-98
-1.0963e-97
1.57094e-97
3.41856e-96
2.94831e-95
5.88959e-95
-1.73517e-95
-1.02948e-93
-1.02111e-92
-5.96041e-92
-6.81514e-92
1.51469e-91
2.50351e-90
2.1863e-89
9.10591e-89
8.02275e-89
-3.84323e-88
-4.76303e-87
-3.80478e-86
-1.23494e-85
-8.60986e-86
6.85709e-85
7.39012e-84
5.50404e-83
1.51351e-82
8.71082e-83
-9.55173e-82
-9.46704e-81
-6.93829e-80
-4.70855e-79
-3.10056e-78
-2.00766e-77
-1.28247e-76
-8.0996e-76
-5.05571e-75
-3.12037e-74
-1.90167e-73
-6.91491e-73
-6.76108e-73
1.39256e-72
1.83455e-71
1.27391e-70
7.78649e-70
4.54921e-69
2.60012e-68
1.46486e-67
8.15602e-67
4.49215e-66
2.44841e-65
1.3208e-64
7.05264e-64
3.72782e-63
1.95059e-62
1.01043e-61
5.18195e-61
2.63113e-60
1.32274e-59
6.58417e-59
3.2452e-58
1.58384e-57
7.65468e-57
3.66355e-56
1.73641e-55
8.1506e-55
3.78905e-54
1.74457e-53
7.95566e-53
3.59342e-52
1.60766e-51
7.12442e-51
3.12741e-50
1.35992e-49
5.85793e-49
2.49972e-48
1.05673e-47
4.42558e-47
1.83622e-46
7.54806e-46
3.07406e-45
1.24041e-44
4.95908e-44
1.96441e-43
7.71015e-43
2.9985e-42
1.15548e-41
4.41214e-41
1.66943e-40
6.25931e-40
2.32558e-39
8.56229e-39
3.12398e-38
1.12952e-37
4.04713e-37
1.43708e-36
5.05701e-36
1.76358e-35
6.09519e-35
2.08774e-34
7.08702e-34
2.38427e-33
7.94977e-33
2.62702e-32
8.60373e-32
2.79271e-31
8.98428e-31
2.86458e-30
9.05236e-30
2.83522e-29
8.80108e-29
2.70777e-28
8.25686e-28
2.49543e-27
7.47486e-27
2.21916e-26
6.52981e-26
1.90432e-25
5.5043e-25
1.57684e-24
4.47711e-24
1.25987e-23
3.51376e-23
9.71254e-23
2.66076e-22
7.22415e-22
1.9439e-21
5.18394e-21
1.37007e-20
3.58855e-20
9.31497e-20
2.39621e-19
6.10864e-19
1.54324e-18
3.86353e-18
9.58498e-18
2.35639e-17
5.74041e-17
1.38571e-16
3.31454e-16
7.8558e-16
1.84486e-15
4.2927e-15
9.89653e-15
2.26052e-14
5.11561e-14
1.14693e-13
2.5475e-13
5.60551e-13
1.22188e-12
2.63839e-12
5.64329e-12
1.19562e-11
2.50902e-11
5.21495e-11
1.07353e-10
2.18865e-10
4.41897e-10
8.83541e-10
1.74934e-09
3.42958e-09
6.65744e-09
1.27953e-08
2.4347e-08
4.58638e-08
8.5526e-08
1.57871e-07
2.88442e-07
5.21598e-07
9.33483e-07
1.65325e-06
2.89736e-06
5.02417e-06
8.61968e-06
1.46301e-05
2.45637e-05
4.07941e-05
6.70063e-05
0.000108845
0.000174837
0.000277681
0.000436016
0.00067679
0.00103837
0.00157451
0.0023593
0.00349309
0.00510938
0.00738248
0.0105354
0.0148476
0.0206609
0.0283839
0.0384905
0.0515146
0.0680352
0.0886538
0.113961
0.144491
0.180673
0.222768
0.270813
0.324562
0.383447
0.446557
0.512639
0.580146
0.647311
0.712254
0.773122
0.828236
0.876237
0.916199
0.947711
0.970886
0.986323
0.995094
0.998866
0.999869
0.999994
1
1
1
1
1
1
1
1
1
1
1
1
1
1
1
1
1
1
1
1
1
1
1
1
1
1
1
1
1
1
1
1
1
1
1
1
1
1
1
1
1
1
1
1
1
1
1
1
0.999999
0.999999
0.999998
0.999997
0.999995
0.999991
0.999985
0.999975
0.999959
0.999933
0.999891
0.999825
0.999722
0.999564
0.999323
0.998961
0.998424
0.997639
0.996504
0.994887
0.992612
0.989457
0.985142
0.979325
0.971598
0.961487
0.948457
0.931929
0.911302
0.885987
0.855447
0.819255
0.77715
0.729096
0.675339
0.616447
0.553333
0.487249
0.419742
0.352582
0.287646
0.226787
0.171685
0.123697
0.0837488
0.0522499
0.029087
0.0136604
0.00489783
0.00113102
0.000130428
5.47794e-06
6.06317e-08
1.32967e-10
4.58888e-14
4.03516e-18
3.50631e-22
3.02188e-26
2.59298e-30
2.22275e-34
1.90822e-38
1.6429e-42
1.41896e-46
1.22888e-50
1.06625e-54
9.26032e-59
8.04417e-63
6.98568e-67
6.06322e-71
5.25957e-75
4.56026e-79
3.95265e-83
3.42544e-87
2.96844e-91
2.57254e-95
2.22964e-99
1.93262e-103
1.67531e-107
1.45233e-111
1.25906e-115
1.09151e-119
9.46244e-124
8.20299e-128
7.11103e-132
6.16433e-136
5.34361e-140
4.63212e-144
4.01536e-148
3.48071e-152
3.01725e-156
2.6155e-160
2.26725e-164
1.96536e-168
1.70367e-172
1.47682e-176
1.28017e-180
1.1097e-184
9.61935e-189
8.3384e-193
7.22802e-197
6.26548e-201
5.43111e-205
4.70785e-209
4.0809e-213
3.53743e-217
3.06633e-221
2.65797e-225
2.30399e-229
1.99715e-233
1.73117e-237
1.50061e-241
1.30076e-245
1.12752e-249
9.77354e-254
8.47186e-258
7.34354e-262
6.36548e-266
5.51769e-270
4.7828e-274
4.14579e-278
3.59361e-282
3.11498e-286
2.70009e-290
2.34046e-294
2.02873e-298
1.75851e-302
1.52429e-306
1.32126e-310
1.14527e-314
9.92696e-319
6.91692e-323
0
0
0
0
0
0
0
0
0
0
0
0
0
0
0
0
0
0
0
0
0
0
0
0
0
0
0
0
0
0
0
0
0
0
0
0
0
0
0
0
0
0
0
0
0
0
0
0
0
0
0
0
0
0
0
0
0
0
0
0
0
0
0
0
0
0
0
0
0
)
;

boundaryField
{
    sides
    {
        type            zeroGradient;
    }
    empty
    {
        type            empty;
    }
}


// ************************************************************************* //
