/*--------------------------------*- C++ -*----------------------------------*\
| =========                 |                                                 |
| \\      /  F ield         | OpenFOAM: The Open Source CFD Toolbox           |
|  \\    /   O peration     | Version:  2312                                  |
|   \\  /    A nd           | Website:  www.openfoam.com                      |
|    \\/     M anipulation  |                                                 |
\*---------------------------------------------------------------------------*/
FoamFile
{
    version     2.0;
    format      ascii;
    arch        "LSB;label=32;scalar=64";
    class       volScalarField;
    location    "1.2";
    object      T;
}
// * * * * * * * * * * * * * * * * * * * * * * * * * * * * * * * * * * * * * //

dimensions      [0 0 0 1 0 0 0];

internalField   nonuniform List<scalar> 
1000
(
0
0
0
0
0
0
0
0
0
0
0
0
0
0
0
0
0
0
0
0
0
0
0
0
0
0
0
0
0
0
0
0
0
0
0
0
0
0
0
0
0
0
0
0
0
0
0
0
0
0
0
0
0
0
0
0
0
0
0
0
0
0
0
0
0
0
0
0
0
0
0
0
0
0
0
0
0
0
0
0
0
0
0
0
0
0
0
0
0
0
0
0
0
0
0
0
0
0
0
0
0
0
0
0
0
0
0
0
0
0
4.44659e-323
-1.0326e-321
2.37695e-320
-5.47474e-319
1.25608e-317
-2.86962e-316
6.52812e-315
-1.47878e-313
3.33556e-312
-7.49164e-311
1.67543e-309
-3.73089e-308
8.27239e-307
-1.82633e-305
4.01469e-304
-8.78711e-303
1.91495e-301
-4.15509e-300
8.97663e-299
-1.93086e-297
4.13513e-296
-8.81705e-295
1.87176e-293
-3.95607e-292
8.32458e-291
-1.74397e-289
3.63741e-288
-7.55291e-287
1.56136e-285
-3.21331e-284
6.58355e-283
-1.34283e-281
2.72664e-280
-5.51161e-279
1.10909e-277
-2.22173e-276
4.4304e-275
-8.79466e-274
1.73786e-272
-3.41842e-271
6.69338e-270
-1.30458e-268
2.53101e-267
-4.8878e-266
9.39555e-265
-1.79769e-263
3.42363e-262
-6.48982e-261
1.22447e-259
-2.29946e-258
4.29795e-257
-7.99558e-256
1.48042e-254
-2.72811e-253
5.00351e-252
-9.13311e-251
1.65915e-249
-2.99967e-248
5.39726e-247
-9.66453e-246
1.72222e-244
-3.05418e-243
5.38999e-242
-9.46597e-241
1.65432e-239
-2.87704e-238
4.97894e-237
-8.57405e-236
1.46922e-234
-2.50516e-233
4.25033e-232
-7.17535e-231
1.20529e-229
-2.01445e-228
3.34993e-227
-5.54269e-226
9.12443e-225
-1.49446e-223
2.43526e-222
-3.94809e-221
6.36794e-220
-1.02182e-218
1.63121e-217
-2.59055e-216
4.09276e-215
-6.43244e-214
1.00568e-212
-1.56411e-211
2.41983e-210
-3.72397e-209
5.70063e-208
-8.68016e-207
1.31466e-205
-1.98048e-204
2.96749e-203
-4.42247e-202
6.55522e-201
-9.66379e-200
1.4169e-198
-2.06609e-197
2.99621e-196
-4.32115e-195
6.19756e-194
-8.8395e-193
1.25375e-191
-1.76832e-190
2.48009e-189
-3.45879e-188
4.79643e-187
-6.61364e-186
9.06739e-185
-1.23604e-183
1.67526e-182
-2.25747e-181
3.02439e-180
-4.02832e-179
5.33416e-178
-7.02192e-177
9.18929e-176
-1.19545e-174
1.54596e-173
-1.98731e-172
2.53937e-171
-3.22527e-170
4.07169e-169
-5.10905e-168
6.37163e-167
-7.89757e-166
9.72876e-165
-1.19105e-163
1.44909e-162
-1.75205e-161
2.10508e-160
-2.51331e-159
2.98172e-158
-3.51495e-157
4.11706e-156
-4.79136e-155
5.54013e-154
-6.36437e-153
7.26359e-152
-8.23556e-151
9.27612e-150
-1.0379e-148
1.15357e-147
-1.27357e-146
1.39658e-145
-1.52113e-144
1.64552e-143
-1.76792e-142
1.88637e-141
-1.99884e-140
2.10329e-139
-2.19773e-138
2.28027e-137
-2.34917e-136
2.40294e-135
-2.44034e-134
2.46049e-133
-2.46283e-132
2.44721e-131
-2.41385e-130
2.36337e-129
-2.29677e-128
2.21536e-127
-2.12076e-126
2.01482e-125
-1.89958e-124
1.77719e-123
-1.64984e-122
1.5197e-121
-1.38885e-120
1.25926e-119
-1.13269e-118
1.01068e-117
-8.94549e-117
7.8533e-116
-6.83803e-115
5.90493e-114
-5.05679e-113
4.29421e-112
-3.61585e-111
3.01875e-110
-2.49864e-109
2.05025e-108
-1.66766e-107
1.34453e-106
-1.0744e-105
8.50863e-105
-6.6775e-104
5.19272e-103
-4.00098e-102
3.05414e-101
-2.30955e-100
1.72997e-99
-1.28347e-98
9.43031e-98
-6.86145e-97
4.94324e-96
-3.52589e-95
2.48967e-94
-1.74013e-93
1.20375e-92
-8.24066e-92
5.58215e-91
-3.74112e-90
2.48031e-89
-1.62652e-88
1.05487e-87
-6.76496e-87
4.28938e-86
-2.68856e-85
1.6656e-84
-1.01972e-83
6.16837e-83
-3.68609e-82
2.17563e-81
-1.26808e-80
7.29725e-80
-4.14509e-79
2.32367e-78
-1.28523e-77
7.01208e-77
-3.77278e-76
2.00129e-75
-1.04632e-74
5.39016e-74
-2.73513e-73
1.36662e-72
-6.72132e-72
3.25261e-71
-1.54811e-70
7.24391e-70
-3.33071e-69
1.50407e-68
-6.66697e-68
2.899e-67
-1.23576e-66
5.16026e-66
-2.1091e-65
8.42968e-65
-3.29127e-64
1.25383e-63
-4.65422e-63
1.68071e-62
-5.89333e-62
2.00198e-61
-6.5701e-61
2.07565e-60
-6.28325e-60
1.81092e-59
-4.92371e-59
1.2448e-58
-2.85322e-58
5.6224e-58
-8.14184e-58
1.51892e-58
4.66824e-57
-2.27167e-56
7.36913e-56
-1.85517e-55
3.49775e-55
-3.38856e-55
-7.92088e-55
5.60994e-54
-1.8757e-53
4.26439e-53
-5.62712e-53
-4.29295e-53
5.32089e-52
-1.84213e-51
3.84604e-51
-3.21425e-51
-1.20008e-50
6.5239e-50
-1.66066e-49
1.97494e-49
3.25384e-49
-2.37524e-48
6.24733e-48
-6.7343e-48
-1.5729e-47
9.33985e-47
-2.08312e-46
9.87795e-47
9.53478e-46
-3.55025e-45
5.04964e-45
6.257e-45
-4.86275e-44
1.02707e-43
-8.0525e-46
-6.07371e-43
1.6569e-42
-8.37211e-43
-7.54951e-42
2.42331e-41
-1.66841e-41
-1.00053e-40
3.37017e-40
-2.13268e-40
-1.45154e-39
4.48051e-39
-1.51223e-39
-2.23102e-38
5.51343e-38
1.41766e-38
-3.39176e-37
5.74853e-37
8.2081e-37
-4.70839e-36
3.78818e-36
1.95752e-35
-5.3641e-35
-2.0852e-35
3.26884e-34
-3.82036e-34
-1.21958e-33
3.7982e-33
1.40999e-33
-2.23036e-32
2.05952e-32
9.42442e-32
-2.19107e-31
-2.56517e-31
1.42986e-30
-9.40794e-32
-7.40775e-30
7.2318e-30
3.2327e-29
-6.36683e-29
-1.18497e-28
4.11597e-28
3.34924e-28
-2.30451e-27
-4.06813e-28
1.18702e-26
-3.44964e-27
-5.81496e-26
3.84754e-26
2.77285e-25
-2.64841e-25
-1.3108e-24
1.5244e-24
6.23032e-24
-7.88224e-24
-3.0037e-23
3.73614e-23
1.4716e-22
-1.61218e-22
-7.28632e-22
6.07641e-22
3.60253e-21
-1.7349e-21
-1.74867e-20
9.70415e-22
8.15359e-20
3.6414e-20
-3.54572e-19
-3.77769e-19
1.37027e-18
2.65568e-18
-4.21667e-18
-1.52085e-17
6.18193e-18
7.29105e-17
4.00157e-17
-2.81442e-16
-4.60725e-16
7.33966e-16
2.80502e-15
8.0869e-17
-1.18988e-14
-1.51645e-14
3.07443e-14
1.04874e-13
1.63914e-14
-4.12635e-13
-6.75466e-13
6.70289e-13
3.80662e-12
3.39902e-12
-9.74275e-12
-3.01669e-11
-1.37243e-11
9.49278e-11
2.27778e-10
5.60962e-11
-7.76598e-10
-1.74088e-09
-5.20114e-10
5.55347e-09
1.35957e-08
8.25029e-09
-3.25952e-08
-1.02991e-07
-1.14101e-07
1.10921e-07
6.72875e-07
1.21565e-06
5.76342e-07
-2.8501e-06
-9.20715e-06
-1.37678e-05
-4.33305e-06
3.53184e-05
0.000109702
0.000182154
0.000143216
-0.000192418
-0.00101403
-0.0023245
-0.003622
-0.00351087
0.000622658
0.0126818
0.0375047
0.0800171
0.144003
0.230795
0.338296
0.460723
0.589283
0.713684
0.824113
0.913136
0.97699
1.01594
1.03365
1.03594
1.02917
1.01894
1.00921
1.00211
0.998147
0.996802
0.997106
0.998111
0.999143
0.999869
1.00023
1.0003
1.00023
1.00012
1.00003
0.999984
0.999972
0.999978
0.999989
0.999997
1
1
1
1
1
1
1
1
1
1
1
1
1
1
1
1
1
1
1
1
1
1
1
1
1
1
1
1
1
1
1
1
1
1
1
1
1
1
1
1
1
1
1
1
1
1
1
1
0.999999
0.999999
0.999999
1
1.00001
1.00001
1
0.999965
0.99989
0.999818
0.999857
1.00019
1.00101
1.00232
1.00362
1.00351
0.999377
0.987318
0.962495
0.919983
0.855997
0.769205
0.661704
0.539277
0.410717
0.286316
0.175887
0.0868637
0.0230098
-0.0159358
-0.0336525
-0.0359402
-0.0291708
-0.0189378
-0.00921321
-0.00210968
0.00185312
0.00319795
0.00289367
0.00188936
0.000857133
0.00013078
-0.000226175
-0.000302241
-0.000230138
-0.000119301
-3.12381e-05
1.55701e-05
2.82401e-05
2.23874e-05
1.1425e-05
2.74314e-06
-1.61063e-06
-2.56046e-06
-1.84398e-06
-8.09412e-07
-9.5916e-08
1.96142e-07
2.11453e-07
1.22828e-07
3.76279e-08
-7.99392e-09
-1.94152e-08
-1.41309e-08
-5.78735e-09
-3.73684e-10
1.5181e-09
1.37619e-09
6.60725e-10
1.16224e-10
-1.06579e-10
-1.20056e-10
-6.34376e-11
-1.45027e-11
7.18055e-12
9.71915e-12
5.38374e-12
1.33531e-12
-5.03166e-13
-7.45517e-13
-4.13134e-13
-1.00143e-13
3.85461e-14
5.45868e-14
2.88849e-14
6.19718e-15
-3.14512e-15
-3.79869e-15
-1.83364e-15
-3.00858e-16
2.54989e-16
2.48094e-16
1.0421e-16
8.93623e-18
-1.9389e-17
-1.49426e-17
-5.15052e-18
1.94355e-19
1.33736e-18
8.12395e-19
2.07777e-19
-5.52251e-20
-8.20851e-20
-3.87474e-20
-5.59627e-21
5.18775e-21
4.41327e-21
1.5449e-21
-2.83049e-23
-3.51223e-22
-2.03474e-22
-4.57541e-23
1.6114e-23
1.90532e-23
7.72642e-24
5.21224e-25
-1.29029e-24
-8.4401e-25
-2.17672e-25
4.71787e-26
7.00693e-26
2.97351e-26
2.66423e-27
-4.36371e-27
-2.91365e-27
-7.44811e-28
1.56351e-28
2.26686e-28
9.19358e-29
6.29064e-30
-1.38944e-29
-8.50457e-30
-1.89263e-30
5.75988e-31
6.45029e-31
2.28577e-31
1.01445e-33
-4.049e-32
-2.07698e-32
-3.33056e-33
1.98274e-33
1.57597e-33
4.39955e-34
-5.46303e-35
-1.02619e-34
-4.10133e-35
-2.58014e-36
5.67829e-36
3.17894e-36
5.808e-37
-2.49992e-37
-2.15053e-37
-6.09241e-38
6.36729e-39
1.28849e-38
4.99564e-39
2.55352e-40
-6.79583e-40
-3.5386e-40
-5.50365e-41
3.04524e-41
2.24469e-41
5.42816e-42
-1.02374e-42
-1.29384e-42
-4.21266e-43
9.52152e-45
6.79624e-44
2.8519e-44
2.33701e-45
-3.22737e-45
-1.75025e-45
-2.82272e-46
1.34983e-46
9.91594e-47
2.28058e-47
-4.61241e-48
-5.2336e-48
-1.55043e-48
9.26866e-50
2.58327e-49
9.46817e-50
3.11388e-51
-1.19195e-50
-5.34304e-51
-5.45923e-52
5.11372e-52
2.82842e-52
4.50561e-53
-2.01269e-53
-1.41715e-53
-2.9771e-54
7.04638e-55
6.75902e-55
1.74444e-55
-2.01912e-56
-3.08007e-56
-9.4241e-57
3.24381e-58
1.34424e-57
4.78592e-58
1.23862e-59
-5.6261e-59
-2.31071e-59
-1.70379e-60
2.25894e-60
1.06849e-60
1.21443e-61
-8.69519e-62
-4.75634e-62
-7.05194e-63
3.2025e-63
2.0461e-63
3.66575e-64
-1.12433e-64
-8.53188e-65
-1.76932e-65
3.73726e-66
3.457e-66
8.07588e-67
-1.16179e-67
-1.36398e-67
-3.52318e-68
3.29663e-69
5.25019e-69
1.47917e-69
-8.06818e-71
-1.9748e-70
-6.00469e-71
1.40774e-72
7.26979e-72
2.36513e-72
4.22198e-75
-2.62298e-73
-9.0625e-74
-2.03566e-75
9.28818e-75
3.38502e-75
1.3361e-76
-3.23214e-76
-1.23454e-76
-6.59477e-78
1.10661e-77
4.40207e-78
2.84969e-79
-3.73198e-79
-1.53635e-79
-1.13274e-80
1.24097e-80
5.25283e-81
4.23518e-82
-4.07241e-82
-1.76066e-82
-1.5071e-83
1.31988e-83
5.78885e-84
5.13893e-85
-4.22731e-85
-1.86782e-85
-1.68572e-86
1.33848e-86
5.91635e-87
5.33115e-88
-4.19049e-88
-1.84011e-88
-1.62683e-89
1.29728e-89
5.62034e-90
4.7884e-91
-3.97053e-91
-1.68588e-91
-1.35723e-92
1.20109e-92
4.96605e-93
3.6923e-94
-3.58941e-94
-1.43634e-94
-9.58475e-96
1.05915e-95
4.07816e-96
2.34991e-97
-3.08401e-97
-1.13631e-97
-5.33773e-99
8.85563e-99
3.10585e-99
1.07775e-100
-2.50597e-100
-8.32314e-101
-1.72021e-102
6.9839e-102
2.18547e-102
1.02273e-104
-1.91556e-103
-5.61843e-104
7.61046e-106
5.16759e-105
1.4128e-105
-4.86135e-107
-1.37025e-106
-3.47075e-107
2.02989e-108
3.56912e-108
8.31733e-109
-7.20325e-110
-9.12644e-110
-1.94047e-110
2.32853e-111
2.28953e-111
4.39587e-112
-7.05732e-113
-5.63133e-113
-9.63407e-114
2.0351e-114
1.35705e-114
2.03181e-115
-5.63123e-116
-3.20161e-116
-4.08956e-117
1.50308e-117
7.38851e-118
7.74708e-119
-3.88356e-119
-1.66619e-119
-1.34511e-120
9.73551e-121
3.66734e-121
2.01298e-122
-2.37171e-122
-7.86665e-123
-2.0986e-124
5.62087e-124
1.64141e-124
-7.94983e-127
-1.2968e-125
-3.32309e-126
1.36445e-127
2.91358e-127
6.50515e-128
-5.473e-129
-6.37517e-129
-1.22516e-129
1.6863e-130
1.35825e-130
2.20297e-131
-4.58176e-132
-2.81633e-132
-3.734e-133
1.14971e-133
5.67869e-134
5.82612e-135
-2.72105e-135
-1.11211e-135
-7.93644e-137
6.14224e-137
2.11164e-137
7.9818e-139
-1.33098e-138
-3.87769e-139
-1.54481e-142
2.77952e-140
6.86137e-141
-2.95758e-142
-5.60697e-142
-1.16337e-142
1.12202e-143
1.09393e-143
1.87346e-144
-3.11797e-145
-2.06502e-145
-2.82166e-146
7.53756e-147
3.7703e-147
3.85602e-148
-1.67182e-148
-6.65031e-149
-4.43981e-150
3.48217e-150
1.13081e-150
3.21342e-152
-6.89286e-152
-1.8471e-152
2.79198e-154
1.30535e-153
2.88201e-154
-1.94805e-155
-2.37377e-155
-4.25521e-156
5.77962e-157
4.15284e-157
5.83628e-158
-1.44281e-158
)
;

boundaryField
{
    sides
    {
        type            zeroGradient;
    }
    empty
    {
        type            empty;
    }
}


// ************************************************************************* //
