/*--------------------------------*- C++ -*----------------------------------*\
| =========                 |                                                 |
| \\      /  F ield         | OpenFOAM: The Open Source CFD Toolbox           |
|  \\    /   O peration     | Version:  2312                                  |
|   \\  /    A nd           | Website:  www.openfoam.com                      |
|    \\/     M anipulation  |                                                 |
\*---------------------------------------------------------------------------*/
FoamFile
{
    version     2.0;
    format      ascii;
    arch        "LSB;label=32;scalar=64";
    class       volScalarField;
    location    "3.5";
    object      T;
}
// * * * * * * * * * * * * * * * * * * * * * * * * * * * * * * * * * * * * * //

dimensions      [0 0 0 1 0 0 0];

internalField   nonuniform List<scalar> 
1000
(
2.47437e-14
-1.63568e-14
3.7631e-14
-5.76895e-14
9.71206e-14
-1.58805e-13
2.60624e-13
-4.25616e-13
6.93175e-13
-1.12519e-12
1.82062e-12
-2.93628e-12
4.72013e-12
-7.56269e-12
1.20769e-11
-1.9221e-11
3.0488e-11
-4.8195e-11
7.59248e-11
-1.19195e-10
1.86474e-10
-2.90701e-10
4.51577e-10
-6.98971e-10
1.07799e-09
-1.65648e-09
2.53605e-09
-3.86824e-09
5.87812e-09
-8.89852e-09
1.34195e-08
-2.01593e-08
3.0166e-08
-4.49623e-08
6.67496e-08
-9.86959e-08
1.45339e-07
-2.13146e-07
3.11291e-07
-4.52716e-07
6.55597e-07
-9.45316e-07
1.35714e-06
-1.93978e-06
2.7602e-06
-3.90988e-06
5.51308e-06
-7.7376e-06
1.08087e-05
-1.50267e-05
2.07898e-05
-2.86221e-05
3.92088e-05
-5.34399e-05
7.24622e-05
-9.77427e-05
0.000131143
-0.000175008
0.00023226
-0.000306519
0.000402213
-0.000524716
0.000680473
-0.000877124
0.00112362
-0.00143028
0.00180887
-0.00227251
0.00283561
-0.00351357
0.00432244
-0.00527835
0.00639671
-0.00769131
0.00917302
-0.0108484
0.0127182
-0.0147753
0.017003
-0.0193733
0.0218452
-0.0243635
0.026858
-0.0292437
0.031422
-0.0332833
0.0347105
-0.0355845
0.035791
-0.0352286
0.0338177
-0.0315104
0.0282992
-0.0242253
0.0193847
-0.0139306
0.00807252
-0.00206967
-0.00378054
0.00915944
-0.013749
0.0172569
-0.0194442
0.0201509
-0.0193191
0.0170091
-0.0134054
0.00881214
-0.003634
-0.0016545
0.00655165
-0.0105787
0.0133325
-0.0145352
0.014073
-0.0120191
0.00863495
-0.0043473
-0.000297767
0.00470081
-0.00828694
0.0105858
-0.0113015
0.0103621
-0.00793715
0.00441993
-0.000373215
-0.0035553
0.00673575
-0.00866095
0.00903509
-0.00782949
0.0052931
-0.00191289
-0.00167149
0.00478509
-0.00684618
0.00748085
-0.00659998
0.00442065
-0.00142482
-0.00173897
0.00439236
-0.00597409
0.00616459
-0.0049593
0.00267138
0.000139306
-0.00279707
0.0046717
-0.00533181
0.00465171
-0.0028435
0.000403607
0.00201497
-0.00377323
0.00441531
-0.00379026
0.00209186
0.00019691
-0.00244146
0.00403794
-0.00458875
0.00401958
-0.00260208
0.000873273
0.000525728
-0.00104371
0.00038607
0.00139865
-0.00394146
0.00667911
-0.00904392
0.0106553
-0.0114483
0.0116948
-0.0119079
0.0126606
-0.0143805
0.0171929
-0.0208676
0.0248902
-0.0286314
0.0315551
-0.0333856
0.0341739
-0.0342351
0.033985
-0.0337376
0.033547
-0.0331586
0.0320937
-0.0298355
0.0260466
-0.0207281
0.0142578
-0.00728976
0.00055637
0.00534563
-0.0100984
0.0136796
-0.0162529
0.0179908
-0.0189179
0.0188537
-0.0174904
0.0145719
-0.0100941
0.00442735
0.0017028
-0.00738278
0.011761
-0.0142796
0.0147957
-0.0135481
0.0110021
-0.00765445
0.00389525
1.44416e-05
-0.00385812
0.00734282
-0.0100348
0.0114156
-0.0110529
0.00881317
-0.00500428
0.000362893
0.00412965
-0.00753585
0.00923585
-0.0090747
0.00733411
-0.00456456
0.00137482
0.00171916
-0.00433535
0.00618073
-0.00699752
0.00657548
-0.00485015
0.00203276
0.00132581
-0.00441658
0.00640378
-0.00672088
0.00529552
-0.00259058
-0.000565184
0.0032797
-0.00489461
0.00515211
-0.00418576
0.00238277
-0.000218098
-0.00185543
0.00344275
-0.00421409
0.00394671
-0.00261902
0.000505825
0.00181533
-0.00360784
0.00424331
-0.00347601
0.00157808
0.000751709
-0.00267433
0.00355397
-0.00319179
0.00184965
-8.15056e-05
-0.00151538
0.00250058
-0.00267442
0.0020627
-0.000865887
-0.000582555
0.00185846
-0.00253287
0.00231899
-0.00122918
-0.000360223
0.00181763
-0.00252349
0.00217091
-0.00092998
-0.000628458
0.00181563
-0.00215716
0.00159391
-0.000458426
-0.000729231
0.00151034
-0.0016514
0.00117571
-0.000300982
-0.000651062
0.0013404
-0.0014986
0.00103122
-9.67586e-05
-0.00090936
0.00150901
-0.00138505
0.000577705
0.000505593
-0.00130077
0.00140323
-0.000794329
-0.00016397
0.00095516
-0.00120242
0.000849032
-0.000138039
-0.000558632
0.000934263
-0.00086218
0.000409527
0.000213137
-0.000729875
0.000896693
-0.00061143
-7.19098e-06
0.00064156
-0.00092967
0.000685224
-3.80881e-05
-0.000623723
0.000895291
-0.000620492
-7.71993e-06
0.000585242
-0.00076967
0.000490967
3.6955e-05
-0.00048476
0.000616876
-0.000403628
-3.63484e-06
0.000379238
-0.000534676
0.000394748
-3.06813e-05
-0.000360117
0.000543649
-0.000388658
-2.60323e-05
0.000434009
-0.00055199
0.000289455
0.000170003
-0.000496817
0.000462715
-0.00011034
-0.000290551
0.000457488
-0.000300764
-3.65448e-05
0.000310867
-0.000356363
0.00017521
9.65038e-05
-0.0002895
0.000294379
-0.00011171
-0.000147002
0.000312984
-0.000262468
1.56787e-05
0.000253118
-0.000334023
0.000153393
0.000149935
-0.000329647
0.000240112
3.73345e-05
-0.000267899
0.000269195
-6.03986e-05
-0.000172858
0.000248582
-0.000130975
-6.71247e-05
0.000194302
-0.00017229
3.1752e-05
0.000124522
-0.00018859
0.000112161
5.51763e-05
-0.000186464
0.000167829
-2.63021e-06
-0.00017183
0.000196825
-4.36606e-05
-0.000148484
0.000200789
-6.82746e-05
-0.000118209
0.000184462
-8.10591e-05
-8.20294e-05
0.000155192
-8.85912e-05
-4.18612e-05
0.000121913
-9.67581e-05
-1.65724e-06
9.334e-05
-0.000108356
3.27426e-05
7.55907e-05
-0.00012189
5.53214e-05
7.00818e-05
-0.000132328
6.26086e-05
7.28894e-05
-0.000133857
5.60435e-05
7.64682e-05
-0.000123596
4.23141e-05
7.35452e-05
-0.000104281
3.07104e-05
6.15104e-05
-8.38916e-05
2.82366e-05
4.46453e-05
-7.16035e-05
3.51204e-05
3.20962e-05
-7.19279e-05
4.40264e-05
3.19389e-05
-8.08926e-05
4.45683e-05
4.4841e-05
-8.78043e-05
3.09672e-05
6.22921e-05
-8.26078e-05
7.36742e-06
7.20135e-05
-6.39954e-05
-1.43062e-05
6.75242e-05
-4.12704e-05
-2.3721e-05
5.40618e-05
-2.68413e-05
-2.14916e-05
4.43761e-05
-2.46183e-05
-1.92479e-05
4.64317e-05
-2.52756e-05
-2.83441e-05
5.42198e-05
-1.49151e-05
-4.70011e-05
5.24364e-05
9.65001e-06
-6.00488e-05
3.26213e-05
3.52649e-05
-5.41928e-05
4.02834e-06
4.51388e-05
-3.34311e-05
-1.50772e-05
3.76548e-05
-1.53808e-05
-1.81885e-05
2.82527e-05
-1.00451e-05
-1.80495e-05
2.91051e-05
-7.00913e-06
-2.83849e-05
3.14891e-05
9.26616e-06
-4.20056e-05
1.7331e-05
3.38669e-05
-3.78889e-05
-1.21961e-05
4.33646e-05
-1.19768e-05
-3.28908e-05
2.77896e-05
1.2985e-05
-2.95045e-05
6.49327e-06
1.8291e-05
-1.71708e-05
-6.65368e-07
1.54968e-05
-1.50737e-05
-3.46141e-06
2.25096e-05
-1.30738e-05
-1.93556e-05
2.7274e-05
7.68491e-06
-3.40726e-05
7.52938e-06
3.17485e-05
-2.06652e-05
-2.20039e-05
2.75119e-05
8.83126e-06
-2.64566e-05
3.17837e-06
1.85825e-05
-1.0401e-05
-6.88225e-06
1.11386e-05
-4.96846e-06
-5.80476e-06
1.37999e-05
-3.54485e-06
-1.77545e-05
1.40534e-05
1.65636e-05
-2.29503e-05
-1.13392e-05
2.82328e-05
4.04738e-06
-2.90087e-05
3.12352e-06
2.54943e-05
-8.31945e-06
-1.87516e-05
1.03843e-05
1.02917e-05
-8.9937e-06
-1.66993e-06
4.58578e-06
-5.83221e-06
1.84695e-06
1.13913e-05
-9.02677e-06
-1.46853e-05
1.56542e-05
1.5823e-05
-2.06197e-05
-1.52017e-05
2.31427e-05
1.33415e-05
-2.28372e-05
-1.07353e-05
1.97169e-05
7.74367e-06
-1.41589e-05
-4.55013e-06
6.84133e-06
1.17843e-06
1.33346e-06
2.43627e-06
-9.32874e-06
-6.34075e-06
1.60786e-05
1.04472e-05
-2.06139e-05
-1.44379e-05
2.22096e-05
1.77251e-05
-2.05437e-05
-1.94959e-05
1.58401e-05
1.88619e-05
-8.95425e-06
-1.51079e-05
1.34483e-06
8.00274e-06
5.11925e-06
1.90845e-06
-8.54039e-06
-1.31432e-05
7.53077e-06
2.33781e-05
-1.79598e-06
-2.98935e-05
-7.43019e-06
3.03637e-05
1.7341e-05
-2.38353e-05
-2.41083e-05
1.15666e-05
2.40765e-05
2.71745e-06
-1.53662e-05
-1.35602e-05
-6.82585e-07
1.56166e-05
1.90233e-05
-6.19824e-06
-3.20864e-05
-1.25046e-05
3.27841e-05
3.2924e-05
-1.84865e-05
-4.44574e-05
-5.95218e-06
3.85799e-05
2.84785e-05
-1.47742e-05
-3.48454e-05
-1.63181e-05
1.71796e-05
3.6088e-05
1.83291e-05
-2.82333e-05
-5.08399e-05
-8.33448e-06
5.53283e-05
5.3063e-05
-2.0948e-05
-7.2454e-05
-3.46209e-05
4.37857e-05
6.98068e-05
2.04348e-05
-4.80455e-05
-7.05263e-05
-2.51215e-05
5.38013e-05
9.07921e-05
3.23193e-05
-7.70784e-05
-0.000116847
-2.68714e-05
0.000104497
0.000132357
2.20022e-05
-0.000115288
-0.000146267
-4.21766e-05
0.00010926
0.000179577
9.40607e-05
-9.81843e-05
-0.000234457
-0.000167435
7.62221e-05
0.00028643
0.000257328
-9.79876e-06
-0.000299487
-0.000368808
-0.000142309
0.00023408
0.000487842
0.000396851
-3.7252e-05
-0.000537078
-0.000710602
-0.000353108
0.000351988
0.000927552
0.000932459
0.000272106
-0.000718445
-0.00144415
-0.00137139
-0.000359346
0.00116701
0.00235398
0.00236521
0.000902878
-0.00152689
-0.00377833
-0.00456824
-0.00307321
0.000609545
0.00530665
0.00903049
0.00965204
0.00577943
-0.00250518
-0.0133387
-0.0232719
-0.0278541
-0.022444
-0.00309493
0.0326656
0.0853677
0.153567
0.234195
0.323122
0.415742
0.507544
0.594613
0.673989
0.743817
0.803259
0.852299
0.891542
0.92205
0.945153
0.962238
0.974573
0.983236
0.989144
0.993084
0.995689
0.997401
0.998486
0.999117
0.999457
0.999662
0.999825
0.999951
1
0.999975
0.999937
0.999951
1.00001
1.00006
1.00004
0.999966
0.999928
0.999969
1.00005
1.00008
1.00003
0.999935
0.999908
0.999978
1.00008
1.00011
1.00002
0.999905
0.999874
0.999969
1.00011
1.00015
1.00005
0.999885
0.99981
0.99991
1.00011
1.00023
1.00016
0.999922
0.999725
0.999748
0.999999
1.00029
1.00038
1.00015
0.99976
0.9995
0.999605
1.00005
1.00054
1.0007
1.00035
0.999659
0.999083
0.999061
0.999714
1.00072
1.00146
1.00138
1.00035
0.998823
0.997656
0.997649
0.999093
1.00151
1.00378
1.00458
1.00308
0.99938
0.994677
0.990973
0.990367
0.994227
1.00249
1.01332
1.02328
1.02787
1.02245
1.00307
0.967321
0.914645
0.846455
0.765804
0.676855
0.584244
0.492471
0.405412
0.32601
0.256156
0.196724
0.147718
0.108487
0.0779525
0.0548185
0.0377392
0.0254414
0.0167986
0.0108663
0.0068871
0.00427764
0.00260394
0.00155363
0.000908599
0.000520839
0.000292633
0.000161136
8.69465e-05
4.5964e-05
2.38001e-05
1.20668e-05
5.98794e-06
2.90679e-06
1.3795e-06
6.39531e-07
2.89338e-07
1.27591e-07
5.47554e-08
2.28216e-08
9.21332e-09
3.58965e-09
1.34277e-09
4.78503e-10
1.60416e-10
4.94617e-11
1.33651e-11
2.74571e-12
1.21946e-13
-2.8745e-13
-2.18367e-13
-1.13821e-13
-4.98362e-14
-1.92854e-14
-6.66142e-15
-2.01896e-15
-5.03409e-16
-7.90916e-17
1.12793e-17
1.74482e-17
1.00687e-17
4.41457e-18
1.62586e-18
5.08953e-19
1.28794e-19
2.06385e-20
-2.38399e-21
-3.97053e-21
-2.20935e-21
-9.1079e-22
-3.06449e-22
-8.3117e-23
-1.55683e-23
5.15593e-26
1.81037e-24
1.08769e-24
4.49167e-25
1.46417e-25
3.69569e-26
5.62537e-27
-7.6361e-28
-1.06372e-27
-5.36528e-28
-1.95774e-28
-5.51255e-29
-1.06683e-29
-2.20785e-31
1.00487e-30
5.91789e-31
2.27908e-31
6.60369e-32
1.32056e-32
5.2143e-34
-1.06655e-33
-6.39937e-34
-2.42166e-34
-6.73853e-35
-1.22381e-35
1.24125e-37
1.28395e-36
6.75312e-37
2.33648e-37
5.78748e-38
7.81304e-39
-1.50259e-39
-1.54183e-39
-6.6029e-40
-1.95723e-40
-3.84578e-41
-1.28335e-42
2.96654e-42
1.63679e-42
5.56225e-43
1.29871e-43
1.41168e-44
-4.86149e-45
-3.72978e-45
-1.41741e-45
-3.65605e-46
-5.27948e-47
6.88754e-48
8.11705e-48
3.35754e-48
9.15462e-49
1.47508e-49
-9.28765e-51
-1.74172e-50
-7.5527e-51
-2.09851e-51
-3.46127e-52
1.66121e-53
3.75883e-53
1.63005e-53
4.45557e-54
7.028e-55
-4.86159e-56
-8.17211e-56
-3.37696e-56
-8.76298e-57
-1.22262e-57
1.65212e-58
1.76251e-58
6.66342e-59
1.57993e-59
1.7106e-60
-5.1192e-61
-3.68084e-61
-1.23433e-61
-2.55015e-62
-1.467e-63
1.38059e-63
7.25754e-64
2.10212e-64
3.5052e-65
-1.16452e-66
-3.24584e-66
-1.31883e-66
-3.19131e-67
-3.57918e-68
9.17366e-69
6.67797e-69
2.15274e-69
4.08575e-70
1.01785e-71
-2.6578e-71
-1.19829e-71
-3.04635e-72
-3.81422e-73
6.75605e-74
5.64881e-74
1.84744e-74
3.48808e-75
8.3032e-77
-2.21263e-76
-9.69031e-77
-2.35729e-77
-2.59659e-78
6.4628e-79
4.49137e-79
1.35313e-79
2.24592e-80
-6.11403e-82
-1.84043e-81
-6.92563e-82
-1.46248e-82
-9.43275e-84
6.51195e-84
3.23289e-84
8.20735e-85
9.81755e-86
-1.83047e-86
-1.39237e-86
-4.16809e-87
-6.65843e-88
2.66206e-89
5.56182e-89
1.96293e-89
3.78211e-90
1.25985e-91
-2.06085e-91
-8.70052e-92
-1.93108e-92
-1.52771e-93
7.04331e-94
3.66728e-94
9.14608e-95
1.01861e-95
-2.18675e-96
-1.4819e-96
-4.08858e-97
-5.57664e-98
6.61595e-99
4.33807e-99
)
;

boundaryField
{
    sides
    {
        type            zeroGradient;
    }
    empty
    {
        type            empty;
    }
}


// ************************************************************************* //
