/*--------------------------------*- C++ -*----------------------------------*\
| =========                 |                                                 |
| \\      /  F ield         | OpenFOAM: The Open Source CFD Toolbox           |
|  \\    /   O peration     | Version:  2312                                  |
|   \\  /    A nd           | Website:  www.openfoam.com                      |
|    \\/     M anipulation  |                                                 |
\*---------------------------------------------------------------------------*/
FoamFile
{
    version     2.0;
    format      ascii;
    arch        "LSB;label=32;scalar=64";
    class       volScalarField;
    location    "1.9";
    object      T;
}
// * * * * * * * * * * * * * * * * * * * * * * * * * * * * * * * * * * * * * //

dimensions      [0 0 0 1 0 0 0];

internalField   nonuniform List<scalar> 
1000
(
1.43115e-143
3.86959e-143
1.30713e-142
4.50496e-142
1.55301e-141
5.34612e-141
1.83748e-140
6.30551e-140
2.16038e-139
7.39006e-139
2.52392e-138
8.60615e-138
2.92987e-137
9.95842e-137
3.37937e-136
1.14494e-135
3.87281e-135
1.30788e-134
4.40968e-134
1.48436e-133
4.98847e-133
1.67373e-132
5.60651e-132
1.87494e-131
6.25996e-131
2.0866e-130
6.9437e-130
2.30688e-129
7.65137e-129
2.53356e-128
8.37534e-128
2.76407e-127
9.10686e-127
2.99544e-126
9.83613e-126
3.22446e-125
1.05525e-124
3.44765e-124
1.12448e-123
3.66139e-123
1.19015e-122
3.86201e-122
1.25108e-121
4.04586e-121
1.30615e-120
4.20946e-120
1.35429e-119
4.34956e-119
1.39453e-118
4.46328e-118
1.42602e-117
4.5482e-117
1.44809e-116
4.60244e-116
1.46022e-115
4.62473e-115
1.46213e-114
4.61444e-114
1.45372e-113
4.57165e-113
1.43513e-112
4.49711e-112
1.40669e-111
4.39225e-111
1.36897e-110
4.25911e-110
1.3227e-109
4.1003e-109
1.26877e-108
3.91888e-108
1.20823e-107
3.71828e-107
1.1422e-106
3.50223e-106
1.07188e-105
3.27455e-105
9.98509e-105
3.03913e-104
9.23293e-104
2.79977e-103
8.47414e-103
2.5601e-102
7.71977e-102
2.32347e-101
6.97993e-101
2.09289e-100
6.26355e-100
1.87099e-99
5.57824e-99
1.65995e-98
4.93021e-98
1.46152e-97
4.32424e-97
1.27697e-96
3.76369e-96
1.10716e-95
3.25059e-95
9.52519e-95
2.78574e-94
8.13129e-94
2.36881e-93
6.8873e-93
1.99855e-92
5.78798e-92
1.67294e-91
4.82588e-91
1.38935e-90
3.99192e-90
1.14469e-89
3.27587e-89
9.3561e-89
2.66681e-88
7.58606e-88
2.1536e-87
6.10147e-87
1.72514e-86
4.8678e-86
1.37074e-85
3.85207e-85
1.0803e-84
3.02344e-84
8.44436e-84
2.35362e-83
6.54652e-83
1.81712e-82
5.03335e-82
1.39132e-81
3.83785e-81
1.05644e-80
2.90193e-80
7.95461e-80
2.17588e-79
5.93931e-79
1.61777e-78
4.39719e-78
1.19264e-77
3.22789e-77
8.71766e-77
2.34936e-76
6.31782e-76
1.69531e-75
4.53935e-75
1.21282e-74
3.2334e-74
8.60157e-74
2.28323e-73
6.04743e-73
1.59824e-72
4.21461e-72
1.10896e-71
2.91152e-71
7.62711e-71
1.9936e-70
5.19935e-70
1.35298e-69
3.51289e-69
9.10049e-69
2.35228e-68
6.06646e-68
1.561e-67
4.00761e-67
1.02656e-66
2.62358e-66
6.68983e-66
1.70194e-65
4.31993e-65
1.09399e-64
2.76406e-64
6.96755e-64
1.7523e-63
4.39671e-63
1.10062e-62
2.74875e-62
6.84885e-62
1.70248e-61
4.22208e-61
1.04459e-60
2.57836e-60
6.34909e-60
1.55973e-59
3.82255e-59
9.3459e-59
2.27956e-58
5.54676e-58
1.34643e-57
3.2605e-57
7.87651e-57
1.89816e-56
4.56327e-56
1.09437e-55
2.61813e-55
6.24822e-55
1.4875e-54
3.53256e-54
8.36858e-54
1.97761e-53
4.66181e-53
1.0962e-52
2.57125e-52
6.01609e-52
1.4041e-51
3.26883e-51
7.59091e-51
1.75833e-50
4.06265e-50
9.36307e-50
2.1524e-49
4.93541e-49
1.12879e-48
2.57509e-48
5.85944e-48
1.32985e-47
3.01044e-47
6.79726e-47
1.53078e-46
3.43844e-46
7.70334e-46
1.72132e-45
3.83626e-45
8.52736e-45
1.8905e-44
4.18018e-44
9.21856e-44
2.02759e-43
4.44776e-43
9.73075e-43
2.1232e-42
4.62031e-42
1.00273e-41
2.17035e-41
4.68494e-41
1.00856e-40
2.16532e-40
4.63618e-40
9.89955e-40
2.10806e-39
4.47674e-39
9.48083e-39
2.00233e-38
4.21722e-38
8.85756e-38
1.85523e-37
3.87501e-37
8.07119e-37
1.67644e-36
3.47233e-36
7.17191e-36
1.47715e-35
3.03382e-35
6.21334e-35
1.2689e-34
2.58402e-34
5.24718e-34
1.06246e-33
2.14515e-33
4.31872e-33
8.66963e-33
1.73537e-32
3.46361e-32
6.89294e-32
1.36778e-31
2.70623e-31
5.33878e-31
1.05014e-30
2.05958e-30
4.02746e-30
7.85239e-30
1.52647e-29
2.95861e-29
5.71736e-29
1.10156e-28
2.11605e-28
4.05269e-28
7.73852e-28
1.47321e-27
2.79617e-27
5.29115e-27
9.98206e-27
1.87746e-26
3.52047e-26
6.58121e-26
1.22654e-25
2.27891e-25
4.22123e-25
7.79494e-25
1.43498e-24
2.63351e-24
4.81812e-24
8.78761e-24
1.59776e-23
2.89597e-23
5.23262e-23
9.425e-23
1.6923e-22
3.02905e-22
5.40461e-22
9.61272e-22
1.70432e-21
3.01214e-21
5.30659e-21
9.31898e-21
1.63129e-20
2.84644e-20
4.9508e-20
8.58322e-20
1.48328e-19
2.555e-19
4.38682e-19
7.50755e-19
1.28065e-18
2.17745e-18
3.69016e-18
6.2333e-18
1.04946e-17
1.7611e-17
2.94557e-17
4.91043e-17
8.15891e-17
1.35115e-16
2.23014e-16
3.66871e-16
6.01512e-16
9.82932e-16
1.60084e-15
2.59844e-15
4.20356e-15
6.77733e-15
1.08901e-14
1.74396e-14
2.78336e-14
4.42718e-14
7.0179e-14
1.10868e-13
1.74551e-13
2.73876e-13
4.28249e-13
6.6734e-13
1.03635e-12
1.60386e-12
2.47359e-12
3.8018e-12
5.82298e-12
8.88784e-12
1.35188e-11
2.04912e-11
3.09516e-11
4.6589e-11
6.98819e-11
1.04454e-10
1.55583e-10
2.30927e-10
3.41552e-10
5.03397e-10
7.3932e-10
1.08198e-09
1.57786e-09
2.29288e-09
3.32011e-09
4.7905e-09
6.88754e-09
9.86737e-09
1.40861e-08
2.00368e-08
2.83997e-08
4.01094e-08
5.64446e-08
7.91483e-08
1.10586e-07
1.53958e-07
2.13569e-07
2.95197e-07
4.06557e-07
5.5791e-07
7.6285e-07
1.03931e-06
1.41085e-06
1.9083e-06
2.57181e-06
3.45349e-06
4.62066e-06
6.15991e-06
8.18218e-06
1.0829e-05
1.428e-05
1.87625e-05
2.45627e-05
3.20394e-05
4.16401e-05
5.39214e-05
6.95715e-05
8.94381e-05
0.00011456
0.000146207
0.000185919
0.00023556
0.000297372
0.000374045
0.000468782
0.000585387
0.000728351
0.000902955
0.00111537
0.00137279
0.00168353
0.00205716
0.00250469
0.00303862
0.00367315
0.00442429
0.00530999
0.00635026
0.00756731
0.00898557
0.0106318
0.0125353
0.0147273
0.0172419
0.0201151
0.0233851
0.027092
0.0312777
0.0359852
0.0412588
0.0471432
0.053683
0.0609227
0.0689052
0.077672
0.087262
0.0977107
0.10905
0.121307
0.134503
0.148654
0.163768
0.179847
0.196885
0.214866
0.233768
0.253559
0.274196
0.295633
0.317809
0.340661
0.364113
0.388087
0.412495
0.437247
0.462248
0.487399
0.512601
0.537752
0.562753
0.587505
0.611913
0.635887
0.659339
0.682191
0.704367
0.725803
0.746441
0.766232
0.785134
0.803115
0.820153
0.836232
0.851346
0.865497
0.878693
0.89095
0.902289
0.912738
0.922327
0.931094
0.939076
0.946316
0.952855
0.958739
0.964011
0.968718
0.972902
0.976607
0.979874
0.982744
0.985254
0.98744
0.989336
0.990973
0.992379
0.99358
0.994601
0.995461
0.996181
0.996775
0.99726
0.997645
0.997942
0.998158
0.998299
0.998369
0.998369
0.998299
0.998158
0.997942
0.997645
0.99726
0.996775
0.996181
0.995461
0.994601
0.99358
0.992379
0.990973
0.989336
0.98744
0.985254
0.982744
0.979874
0.976607
0.972902
0.968718
0.964011
0.958739
0.952855
0.946316
0.939076
0.931094
0.922327
0.912738
0.902289
0.89095
0.878693
0.865497
0.851346
0.836232
0.820153
0.803115
0.785134
0.766232
0.746441
0.725803
0.704367
0.682191
0.659339
0.635887
0.611913
0.587505
0.562753
0.537752
0.512601
0.487399
0.462248
0.437247
0.412495
0.388087
0.364113
0.340661
0.317809
0.295633
0.274196
0.253559
0.233768
0.214866
0.196885
0.179847
0.163768
0.148654
0.134503
0.121307
0.10905
0.0977107
0.087262
0.077672
0.0689052
0.0609227
0.053683
0.0471432
0.0412588
0.0359852
0.0312777
0.027092
0.0233851
0.0201151
0.0172419
0.0147273
0.0125353
0.0106318
0.00898557
0.00756731
0.00635026
0.00530999
0.00442429
0.00367315
0.00303862
0.00250469
0.00205716
0.00168353
0.00137279
0.00111537
0.000902955
0.000728351
0.000585387
0.000468782
0.000374045
0.000297372
0.00023556
0.000185919
0.000146207
0.00011456
8.94381e-05
6.95715e-05
5.39214e-05
4.16401e-05
3.20394e-05
2.45627e-05
1.87625e-05
1.428e-05
1.0829e-05
8.18218e-06
6.15991e-06
4.62066e-06
3.45349e-06
2.57181e-06
1.9083e-06
1.41085e-06
1.03931e-06
7.6285e-07
5.5791e-07
4.06557e-07
2.95197e-07
2.13569e-07
1.53958e-07
1.10586e-07
7.91483e-08
5.64446e-08
4.01094e-08
2.83997e-08
2.00368e-08
1.40861e-08
9.86737e-09
6.88754e-09
4.7905e-09
3.32011e-09
2.29288e-09
1.57786e-09
1.08198e-09
7.3932e-10
5.03397e-10
3.41552e-10
2.30927e-10
1.55583e-10
1.04454e-10
6.98819e-11
4.6589e-11
3.09516e-11
2.04912e-11
1.35188e-11
8.88784e-12
5.82298e-12
3.8018e-12
2.47359e-12
1.60386e-12
1.03635e-12
6.6734e-13
4.28249e-13
2.73876e-13
1.74551e-13
1.10868e-13
7.0179e-14
4.42718e-14
2.78336e-14
1.74396e-14
1.08901e-14
6.77733e-15
4.20356e-15
2.59844e-15
1.60084e-15
9.82932e-16
6.01512e-16
3.66871e-16
2.23014e-16
1.35115e-16
8.15891e-17
4.91043e-17
2.94557e-17
1.7611e-17
1.04946e-17
6.2333e-18
3.69016e-18
2.17745e-18
1.28065e-18
7.50755e-19
4.38682e-19
2.555e-19
1.48328e-19
8.58322e-20
4.9508e-20
2.84644e-20
1.63129e-20
9.31898e-21
5.30659e-21
3.01214e-21
1.70432e-21
9.61272e-22
5.40461e-22
3.02905e-22
1.6923e-22
9.425e-23
5.23262e-23
2.89597e-23
1.59776e-23
8.78761e-24
4.81812e-24
2.63351e-24
1.43498e-24
7.79494e-25
4.22123e-25
2.27891e-25
1.22654e-25
6.58121e-26
3.52047e-26
1.87746e-26
9.98206e-27
5.29115e-27
2.79617e-27
1.47321e-27
7.73852e-28
4.05269e-28
2.11605e-28
1.10156e-28
5.71736e-29
2.95861e-29
1.52647e-29
7.85239e-30
4.02746e-30
2.05958e-30
1.05014e-30
5.33878e-31
2.70623e-31
1.36778e-31
6.89294e-32
3.46361e-32
1.73537e-32
8.66963e-33
4.31872e-33
2.14515e-33
1.06246e-33
5.24718e-34
2.58402e-34
1.2689e-34
6.21334e-35
3.03382e-35
1.47715e-35
7.17191e-36
3.47233e-36
1.67644e-36
8.07119e-37
3.87501e-37
1.85523e-37
8.85756e-38
4.21722e-38
2.00233e-38
9.48083e-39
4.47674e-39
2.10806e-39
9.89955e-40
4.63618e-40
2.16532e-40
1.00856e-40
4.68494e-41
2.17035e-41
1.00273e-41
4.62031e-42
2.1232e-42
9.73075e-43
4.44776e-43
2.02759e-43
9.21856e-44
4.18018e-44
1.8905e-44
8.52736e-45
3.83626e-45
1.72132e-45
7.70334e-46
3.43844e-46
1.53078e-46
6.79726e-47
3.01044e-47
1.32985e-47
5.85944e-48
2.57509e-48
1.12879e-48
4.93541e-49
2.1524e-49
9.36307e-50
4.06265e-50
1.75833e-50
7.59091e-51
3.26883e-51
1.4041e-51
6.01609e-52
2.57125e-52
1.0962e-52
4.66181e-53
1.97761e-53
8.36858e-54
3.53256e-54
1.4875e-54
6.24822e-55
2.61813e-55
1.09437e-55
4.56327e-56
1.89816e-56
7.87651e-57
3.2605e-57
1.34643e-57
5.54676e-58
2.27956e-58
9.3459e-59
3.82255e-59
1.55973e-59
6.34909e-60
2.57836e-60
1.04459e-60
4.22208e-61
1.70248e-61
6.84885e-62
2.74875e-62
1.10062e-62
4.39671e-63
1.7523e-63
6.96755e-64
2.76406e-64
1.09399e-64
4.31993e-65
1.70194e-65
6.68983e-66
2.62358e-66
1.02656e-66
4.00761e-67
1.561e-67
6.06646e-68
2.35228e-68
9.10049e-69
3.51289e-69
1.35298e-69
5.19935e-70
1.9936e-70
7.62711e-71
2.91152e-71
1.10896e-71
4.21461e-72
1.59824e-72
6.04743e-73
2.28323e-73
8.60157e-74
3.2334e-74
1.21282e-74
4.53935e-75
1.69531e-75
6.31782e-76
2.34936e-76
8.71766e-77
3.22789e-77
1.19264e-77
4.39719e-78
1.61777e-78
5.93931e-79
2.17588e-79
7.95461e-80
2.90193e-80
1.05644e-80
3.83785e-81
1.39132e-81
5.03335e-82
1.81712e-82
6.54652e-83
2.35362e-83
8.44436e-84
3.02344e-84
1.0803e-84
3.85207e-85
1.37074e-85
4.8678e-86
1.72514e-86
6.10147e-87
2.1536e-87
7.58606e-88
2.66681e-88
9.3561e-89
3.27587e-89
1.14469e-89
3.99192e-90
1.38935e-90
4.82588e-91
1.67294e-91
5.78798e-92
1.99855e-92
6.8873e-93
2.36881e-93
8.13129e-94
2.78574e-94
9.52519e-95
3.25059e-95
1.10716e-95
3.76369e-96
1.27697e-96
4.32424e-97
1.46152e-97
4.93021e-98
1.65995e-98
5.57824e-99
1.87099e-99
6.26355e-100
2.09289e-100
6.97993e-101
2.32347e-101
7.71977e-102
2.5601e-102
8.47414e-103
2.79977e-103
9.23293e-104
3.03913e-104
9.98509e-105
3.27455e-105
1.07188e-105
3.50223e-106
1.1422e-106
3.71828e-107
1.20823e-107
3.91888e-108
1.26877e-108
4.1003e-109
1.3227e-109
4.25911e-110
1.36897e-110
4.39225e-111
1.40669e-111
4.49711e-112
1.43513e-112
4.57165e-113
1.45372e-113
4.61444e-114
1.46213e-114
4.62473e-115
1.46022e-115
4.60244e-116
1.44809e-116
4.5482e-117
1.42602e-117
4.46328e-118
1.39453e-118
4.34956e-119
1.35429e-119
4.20946e-120
1.30615e-120
4.04586e-121
1.25108e-121
3.86201e-122
1.19015e-122
3.66139e-123
1.12448e-123
3.44765e-124
1.05525e-124
3.22446e-125
9.83613e-126
2.99544e-126
9.10686e-127
2.76407e-127
8.37534e-128
2.53356e-128
7.65137e-129
2.30688e-129
6.9437e-130
2.0866e-130
6.25996e-131
1.87494e-131
5.60651e-132
1.67373e-132
4.98847e-133
1.48436e-133
4.40968e-134
1.30788e-134
3.87281e-135
1.14494e-135
3.37937e-136
9.95842e-137
2.92987e-137
8.60615e-138
2.52392e-138
7.39006e-139
2.16038e-139
6.30551e-140
1.83748e-140
5.34612e-141
1.55301e-141
4.50496e-142
1.30713e-142
3.86959e-143
1.43115e-143
)
;

boundaryField
{
    sides
    {
        type            zeroGradient;
    }
    empty
    {
        type            empty;
    }
}


// ************************************************************************* //
