/*--------------------------------*- C++ -*----------------------------------*\
| =========                 |                                                 |
| \\      /  F ield         | OpenFOAM: The Open Source CFD Toolbox           |
|  \\    /   O peration     | Version:  2312                                  |
|   \\  /    A nd           | Website:  www.openfoam.com                      |
|    \\/     M anipulation  |                                                 |
\*---------------------------------------------------------------------------*/
FoamFile
{
    version     2.0;
    format      ascii;
    arch        "LSB;label=32;scalar=64";
    class       volScalarField;
    location    "1.5";
    object      T;
}
// * * * * * * * * * * * * * * * * * * * * * * * * * * * * * * * * * * * * * //

dimensions      [0 0 0 1 0 0 0];

internalField   nonuniform List<scalar> 
1000
(
1.6547e-168
5.4118e-168
2.17776e-167
8.8746e-167
3.61392e-166
1.46943e-165
5.96538e-165
2.41793e-164
9.78504e-164
3.95361e-163
1.59491e-162
6.42374e-162
2.58313e-161
1.03708e-160
4.157e-160
1.66361e-159
6.64695e-159
2.65151e-158
1.05599e-157
4.19878e-157
1.66679e-156
6.60586e-156
2.61378e-155
1.03252e-154
4.07203e-154
1.60329e-153
6.30223e-153
2.4732e-152
9.68953e-152
3.78988e-151
1.47987e-150
5.76894e-150
2.24513e-149
8.72282e-149
3.38331e-148
1.31007e-147
5.06419e-147
1.9543e-146
7.52892e-146
2.89557e-145
1.11172e-144
4.26098e-144
1.63034e-143
6.2273e-143
2.3745e-142
9.03841e-142
3.43446e-141
1.30278e-140
4.93314e-140
1.86474e-139
7.03642e-139
2.65046e-138
9.96613e-138
3.7408e-137
1.40163e-136
5.24241e-136
1.95729e-135
7.29466e-135
2.7138e-134
1.00779e-133
3.7358e-133
1.38233e-132
5.10572e-132
1.88241e-131
6.92758e-131
2.54483e-130
9.33128e-130
3.4153e-129
1.24773e-128
4.54998e-128
1.65615e-127
6.01705e-127
2.18204e-126
7.89831e-126
2.85361e-125
1.02907e-124
3.70406e-124
1.33075e-123
4.77194e-123
1.70794e-122
6.10137e-122
2.17549e-121
7.74209e-121
2.74998e-120
9.74923e-120
3.44966e-119
1.21828e-118
4.29414e-118
1.51066e-117
5.30411e-117
1.85872e-116
6.50079e-116
2.26918e-115
7.90533e-115
2.74863e-114
9.53794e-114
3.3032e-113
1.1417e-112
3.93827e-112
1.35579e-111
4.65813e-111
1.5972e-110
5.46554e-110
1.86651e-109
6.36137e-109
2.16366e-108
7.3442e-108
2.4878e-107
8.41001e-107
2.83718e-106
9.55181e-106
3.20914e-105
1.07595e-104
3.59995e-104
1.20198e-103
4.00492e-103
1.33162e-102
4.41832e-102
1.46292e-101
4.83358e-101
1.59367e-100
5.24333e-100
1.72144e-99
5.63964e-99
1.84366e-98
6.01423e-98
1.95769e-97
6.35877e-97
2.06092e-96
6.66514e-96
2.15086e-95
6.92574e-95
2.22521e-94
7.13383e-94
2.28202e-93
7.28379e-93
2.31971e-92
7.37137e-92
2.33719e-91
7.39388e-91
2.33387e-90
7.35035e-90
2.30973e-89
7.24156e-89
2.26527e-88
7.07005e-88
2.20159e-87
6.84001e-87
2.12023e-86
6.55708e-86
2.02319e-85
6.22818e-85
1.91284e-84
5.86118e-84
1.79176e-83
5.4646e-83
1.66272e-82
5.04728e-82
1.52852e-81
4.61804e-81
1.39192e-80
4.18539e-80
1.25551e-79
3.75722e-79
1.12168e-78
3.3406e-78
9.92503e-78
2.94162e-77
8.69733e-77
2.56523e-76
7.54753e-76
2.21523e-75
6.48581e-75
1.89425e-74
5.5187e-74
1.60383e-73
4.64942e-73
1.34448e-72
3.87813e-72
1.11583e-71
3.20245e-71
9.16784e-71
2.61789e-70
7.45643e-70
2.11837e-69
6.00293e-69
1.69672e-68
4.78342e-68
1.34507e-67
3.77249e-67
1.05532e-66
2.94446e-66
8.19394e-66
2.27427e-65
6.29576e-65
1.73824e-64
4.78653e-64
1.31456e-63
3.60067e-63
9.83617e-63
2.67982e-62
7.28145e-62
1.97315e-61
5.33245e-61
1.4372e-60
3.86299e-60
1.03549e-59
2.76808e-59
7.37938e-59
1.96184e-58
5.20125e-58
1.37514e-57
3.6256e-57
9.53235e-57
2.49922e-56
6.53419e-56
1.70355e-55
4.42885e-55
1.14814e-54
2.96802e-54
7.65068e-54
1.96648e-53
5.04004e-53
1.28804e-52
3.28222e-52
8.33967e-52
2.11285e-51
5.3373e-51
1.34433e-50
3.37609e-50
8.45365e-50
2.11054e-49
5.25358e-49
1.30385e-48
3.2263e-48
7.95944e-48
1.95776e-47
4.80096e-47
1.17378e-46
2.86107e-46
6.95267e-46
1.68442e-45
4.0684e-45
9.79632e-45
2.35161e-44
5.62767e-44
1.3426e-43
3.19312e-43
7.5706e-43
1.78932e-42
4.21583e-42
9.90174e-42
2.3183e-41
5.41068e-41
1.25879e-40
2.91926e-40
6.74844e-40
1.55504e-39
3.57175e-39
8.17746e-39
1.86617e-38
4.24493e-38
9.62446e-38
2.17501e-37
4.89917e-37
1.0999e-36
2.46124e-36
5.48926e-36
1.2202e-35
2.70335e-35
5.96927e-35
1.31366e-34
2.88127e-34
6.29824e-34
1.37209e-33
2.97902e-33
6.44589e-33
1.38998e-32
2.98706e-32
6.39713e-32
1.3653e-31
2.90381e-31
6.15459e-31
1.29992e-30
2.73601e-30
5.73847e-30
1.19935e-29
2.49784e-29
5.18378e-29
1.07198e-28
2.20892e-28
4.53546e-28
9.27912e-28
1.89161e-27
3.84228e-27
7.77636e-27
1.56815e-26
3.15078e-26
6.3076e-26
1.25811e-25
2.50022e-25
4.95037e-25
9.76543e-25
1.91927e-24
3.75806e-24
7.33116e-24
1.42481e-23
2.75874e-23
5.32145e-23
1.02261e-22
1.95769e-22
3.73362e-22
7.0935e-22
1.34256e-21
2.53127e-21
4.75419e-21
8.89487e-21
1.65777e-20
3.07768e-20
5.6916e-20
1.04846e-19
1.92384e-19
3.51627e-19
6.40158e-19
1.16086e-18
2.09677e-18
3.77224e-18
6.75958e-18
1.20644e-17
2.14465e-17
3.79719e-17
6.69607e-17
1.17605e-16
2.05718e-16
3.58392e-16
6.21837e-16
1.07454e-15
1.84924e-15
3.16942e-15
5.40981e-15
9.19587e-15
1.55671e-14
2.62436e-14
4.40588e-14
7.36602e-14
1.22636e-13
2.03323e-13
3.35684e-13
5.51882e-13
9.03504e-13
1.47291e-12
2.39101e-12
3.86493e-12
6.22088e-12
9.97028e-12
1.59112e-11
2.52835e-11
4.00041e-11
6.3023e-11
9.88596e-11
1.54404e-10
2.40113e-10
3.71778e-10
5.7314e-10
8.79715e-10
1.34439e-09
2.04552e-09
3.09867e-09
4.67344e-09
7.01751e-09
1.04909e-08
1.56142e-08
2.31368e-08
3.41318e-08
5.01283e-08
7.32946e-08
1.0669e-07
1.54609e-07
2.2305e-07
3.20348e-07
4.58029e-07
6.51946e-07
9.23796e-07
1.30312e-06
1.82992e-06
2.55809e-06
3.5599e-06
4.93167e-06
6.80113e-06
9.33681e-06
1.27598e-05
1.73587e-05
2.35079e-05
3.16911e-05
4.25287e-05
5.68131e-05
7.55504e-05
0.00010001
0.000131787
0.000172871
0.00022573
0.000293411
0.000379649
0.000489001
0.000626986
0.000800255
0.00101677
0.00128599
0.00161913
0.00202934
0.00253195
0.00314478
0.0038883
0.00478595
0.00586434
0.00715345
0.00868684
0.0105018
0.0126393
0.0151442
0.0180652
0.0214544
0.0253671
0.0298619
0.0349996
0.0408427
0.047455
0.0549002
0.0632413
0.0725394
0.0828523
0.0942333
0.10673
0.120383
0.135224
0.151275
0.168548
0.187043
0.206745
0.227627
0.24965
0.272758
0.296883
0.321941
0.347837
0.374465
0.401707
0.429436
0.457519
0.485816
0.514184
0.542481
0.570564
0.598293
0.625535
0.652163
0.678059
0.703117
0.727242
0.75035
0.772373
0.793255
0.812957
0.831452
0.848725
0.864776
0.879617
0.89327
0.905767
0.917148
0.927461
0.936759
0.9451
0.952545
0.959157
0.965
0.970138
0.974633
0.978545
0.981934
0.984855
0.98736
0.989497
0.991312
0.992845
0.994133
0.99521
0.996107
0.996848
0.997459
0.997958
0.998364
0.99869
0.998952
0.999157
0.999316
0.999435
0.99952
0.999575
0.999601
0.999601
0.999575
0.99952
0.999435
0.999316
0.999157
0.998952
0.99869
0.998364
0.997958
0.997459
0.996848
0.996107
0.99521
0.994133
0.992845
0.991312
0.989497
0.98736
0.984855
0.981934
0.978545
0.974633
0.970138
0.965
0.959157
0.952545
0.9451
0.936759
0.927461
0.917148
0.905767
0.89327
0.879617
0.864776
0.848725
0.831452
0.812957
0.793255
0.772373
0.75035
0.727242
0.703117
0.678059
0.652163
0.625535
0.598293
0.570564
0.542481
0.514184
0.485816
0.457519
0.429436
0.401707
0.374465
0.347837
0.321941
0.296883
0.272758
0.24965
0.227627
0.206745
0.187043
0.168548
0.151275
0.135224
0.120383
0.10673
0.0942333
0.0828523
0.0725394
0.0632413
0.0549002
0.047455
0.0408427
0.0349996
0.0298619
0.0253671
0.0214544
0.0180652
0.0151442
0.0126393
0.0105018
0.00868684
0.00715345
0.00586434
0.00478595
0.0038883
0.00314478
0.00253195
0.00202934
0.00161913
0.00128599
0.00101677
0.000800255
0.000626986
0.000489001
0.000379649
0.000293411
0.00022573
0.000172871
0.000131787
0.00010001
7.55504e-05
5.68131e-05
4.25287e-05
3.16911e-05
2.35079e-05
1.73587e-05
1.27598e-05
9.33681e-06
6.80113e-06
4.93167e-06
3.5599e-06
2.55809e-06
1.82992e-06
1.30312e-06
9.23796e-07
6.51946e-07
4.58029e-07
3.20348e-07
2.2305e-07
1.54609e-07
1.0669e-07
7.32946e-08
5.01283e-08
3.41318e-08
2.31368e-08
1.56142e-08
1.04909e-08
7.01751e-09
4.67344e-09
3.09867e-09
2.04552e-09
1.34439e-09
8.79715e-10
5.7314e-10
3.71778e-10
2.40113e-10
1.54404e-10
9.88596e-11
6.3023e-11
4.00041e-11
2.52835e-11
1.59112e-11
9.97028e-12
6.22088e-12
3.86493e-12
2.39101e-12
1.47291e-12
9.03504e-13
5.51882e-13
3.35684e-13
2.03323e-13
1.22636e-13
7.36602e-14
4.40588e-14
2.62436e-14
1.55671e-14
9.19587e-15
5.40981e-15
3.16942e-15
1.84924e-15
1.07454e-15
6.21837e-16
3.58392e-16
2.05718e-16
1.17605e-16
6.69607e-17
3.79719e-17
2.14465e-17
1.20644e-17
6.75958e-18
3.77224e-18
2.09677e-18
1.16086e-18
6.40158e-19
3.51627e-19
1.92384e-19
1.04846e-19
5.6916e-20
3.07768e-20
1.65777e-20
8.89487e-21
4.75419e-21
2.53127e-21
1.34256e-21
7.0935e-22
3.73362e-22
1.95769e-22
1.02261e-22
5.32145e-23
2.75874e-23
1.42481e-23
7.33116e-24
3.75806e-24
1.91927e-24
9.76543e-25
4.95037e-25
2.50022e-25
1.25811e-25
6.3076e-26
3.15078e-26
1.56815e-26
7.77636e-27
3.84228e-27
1.89161e-27
9.27912e-28
4.53546e-28
2.20892e-28
1.07198e-28
5.18378e-29
2.49784e-29
1.19935e-29
5.73847e-30
2.73601e-30
1.29992e-30
6.15459e-31
2.90381e-31
1.3653e-31
6.39713e-32
2.98706e-32
1.38998e-32
6.44589e-33
2.97902e-33
1.37209e-33
6.29824e-34
2.88127e-34
1.31366e-34
5.96927e-35
2.70335e-35
1.2202e-35
5.48926e-36
2.46124e-36
1.0999e-36
4.89917e-37
2.17501e-37
9.62446e-38
4.24493e-38
1.86617e-38
8.17746e-39
3.57175e-39
1.55504e-39
6.74844e-40
2.91926e-40
1.25879e-40
5.41068e-41
2.3183e-41
9.90174e-42
4.21583e-42
1.78932e-42
7.5706e-43
3.19312e-43
1.3426e-43
5.62767e-44
2.35161e-44
9.79632e-45
4.0684e-45
1.68442e-45
6.95267e-46
2.86107e-46
1.17378e-46
4.80096e-47
1.95776e-47
7.95944e-48
3.2263e-48
1.30385e-48
5.25358e-49
2.11054e-49
8.45365e-50
3.37609e-50
1.34433e-50
5.3373e-51
2.11285e-51
8.33967e-52
3.28222e-52
1.28804e-52
5.04004e-53
1.96648e-53
7.65068e-54
2.96802e-54
1.14814e-54
4.42885e-55
1.70355e-55
6.53419e-56
2.49922e-56
9.53235e-57
3.6256e-57
1.37514e-57
5.20125e-58
1.96184e-58
7.37938e-59
2.76808e-59
1.03549e-59
3.86299e-60
1.4372e-60
5.33245e-61
1.97315e-61
7.28145e-62
2.67982e-62
9.83617e-63
3.60067e-63
1.31456e-63
4.78653e-64
1.73824e-64
6.29576e-65
2.27427e-65
8.19394e-66
2.94446e-66
1.05532e-66
3.77249e-67
1.34507e-67
4.78342e-68
1.69672e-68
6.00293e-69
2.11837e-69
7.45643e-70
2.61789e-70
9.16784e-71
3.20245e-71
1.11583e-71
3.87813e-72
1.34448e-72
4.64942e-73
1.60383e-73
5.5187e-74
1.89425e-74
6.48581e-75
2.21523e-75
7.54753e-76
2.56523e-76
8.69733e-77
2.94162e-77
9.92503e-78
3.3406e-78
1.12168e-78
3.75722e-79
1.25551e-79
4.18539e-80
1.39192e-80
4.61804e-81
1.52852e-81
5.04728e-82
1.66272e-82
5.4646e-83
1.79176e-83
5.86118e-84
1.91284e-84
6.22818e-85
2.02319e-85
6.55708e-86
2.12023e-86
6.84001e-87
2.20159e-87
7.07005e-88
2.26527e-88
7.24156e-89
2.30973e-89
7.35035e-90
2.33387e-90
7.39388e-91
2.33719e-91
7.37137e-92
2.31971e-92
7.28379e-93
2.28202e-93
7.13383e-94
2.22521e-94
6.92574e-95
2.15086e-95
6.66514e-96
2.06092e-96
6.35877e-97
1.95769e-97
6.01423e-98
1.84366e-98
5.63964e-99
1.72144e-99
5.24333e-100
1.59367e-100
4.83358e-101
1.46292e-101
4.41832e-102
1.33162e-102
4.00492e-103
1.20198e-103
3.59995e-104
1.07595e-104
3.20914e-105
9.55181e-106
2.83718e-106
8.41001e-107
2.4878e-107
7.3442e-108
2.16366e-108
6.36137e-109
1.86651e-109
5.46554e-110
1.5972e-110
4.65813e-111
1.35579e-111
3.93827e-112
1.1417e-112
3.3032e-113
9.53794e-114
2.74863e-114
7.90533e-115
2.26918e-115
6.50079e-116
1.85872e-116
5.30411e-117
1.51066e-117
4.29414e-118
1.21828e-118
3.44966e-119
9.74923e-120
2.74998e-120
7.74209e-121
2.17549e-121
6.10137e-122
1.70794e-122
4.77194e-123
1.33075e-123
3.70406e-124
1.02907e-124
2.85361e-125
7.89831e-126
2.18204e-126
6.01705e-127
1.65615e-127
4.54998e-128
1.24773e-128
3.4153e-129
9.33128e-130
2.54483e-130
6.92758e-131
1.88241e-131
5.10572e-132
1.38233e-132
3.7358e-133
1.00779e-133
2.7138e-134
7.29466e-135
1.95729e-135
5.24241e-136
1.40163e-136
3.7408e-137
9.96613e-138
2.65046e-138
7.03642e-139
1.86474e-139
4.93314e-140
1.30278e-140
3.43446e-141
9.03841e-142
2.3745e-142
6.2273e-143
1.63034e-143
4.26098e-144
1.11172e-144
2.89557e-145
7.52892e-146
1.9543e-146
5.06419e-147
1.31007e-147
3.38331e-148
8.72282e-149
2.24513e-149
5.76894e-150
1.47987e-150
3.78988e-151
9.68953e-152
2.4732e-152
6.30223e-153
1.60329e-153
4.07203e-154
1.03252e-154
2.61378e-155
6.60586e-156
1.66679e-156
4.19878e-157
1.05599e-157
2.65151e-158
6.64695e-159
1.66361e-159
4.157e-160
1.03708e-160
2.58313e-161
6.42374e-162
1.59491e-162
3.95361e-163
9.78504e-164
2.41793e-164
5.96538e-165
1.46943e-165
3.61392e-166
8.8746e-167
2.17776e-167
5.4118e-168
1.6547e-168
)
;

boundaryField
{
    sides
    {
        type            zeroGradient;
    }
    empty
    {
        type            empty;
    }
}


// ************************************************************************* //
