/*--------------------------------*- C++ -*----------------------------------*\
| =========                 |                                                 |
| \\      /  F ield         | OpenFOAM: The Open Source CFD Toolbox           |
|  \\    /   O peration     | Version:  2312                                  |
|   \\  /    A nd           | Website:  www.openfoam.com                      |
|    \\/     M anipulation  |                                                 |
\*---------------------------------------------------------------------------*/
FoamFile
{
    version     2.0;
    format      ascii;
    arch        "LSB;label=32;scalar=64";
    class       volScalarField;
    location    "1.1";
    object      T;
}
// * * * * * * * * * * * * * * * * * * * * * * * * * * * * * * * * * * * * * //

dimensions      [0 0 0 1 0 0 0];

internalField   nonuniform List<scalar> 
1000
(
0
0
0
0
0
0
0
0
0
0
0
0
0
0
0
0
0
0
0
0
0
0
0
0
0
0
0
0
0
0
0
0
0
0
0
0
0
0
0
0
0
0
0
0
0
0
0
0
0
0
0
0
0
0
0
0
0
0
0
0
0
0
0
0
0
0
0
0
0
0
0
0
0
0
0
0
0
0
0
0
0
0
0
0
0
0
0
0
0
0
0
0
0
0
0
0
0
0
0
0
0
0
0
0
0
0
0
0
0
0
0
0
0
0
0
0
0
0
0
0
0
0
0
0
0
0
0
0
0
0
0
0
0
0
0
0
0
0
0
0
0
0
0
0
0
0
0
0
0
0
0
0
0
0
0
0
0
0
0
0
0
0
0
0
0
0
0
0
0
0
0
0
0
-4.94066e-324
2.96439e-323
-4.94066e-324
2.96439e-323
-4.94066e-324
2.96439e-323
-4.94066e-324
2.96439e-323
-4.94066e-324
2.96439e-323
-4.94066e-324
2.96439e-323
-4.94066e-324
2.96439e-323
-4.94066e-324
2.96439e-323
-4.94066e-324
2.96439e-323
-4.94066e-324
2.96439e-323
-4.94066e-324
2.96439e-323
-4.94066e-324
2.96439e-323
-4.94066e-324
2.96439e-323
-4.94066e-324
2.96439e-323
-4.94066e-324
2.96439e-323
-4.94066e-324
4.44659e-323
-4.94066e-322
6.65506e-321
-8.5256e-320
1.09683e-318
-1.41107e-317
1.81535e-316
-2.33545e-315
3.00457e-314
-3.86539e-313
4.97284e-312
-6.39758e-311
8.23052e-310
-1.05886e-308
1.36223e-307
-1.75251e-306
2.25461e-305
-2.90057e-304
3.7316e-303
-4.80071e-302
6.17614e-301
-7.94563e-300
1.02221e-298
-1.31508e-297
1.69185e-296
-2.17657e-295
2.80017e-294
-3.60243e-293
4.63454e-292
-5.96236e-291
7.6706e-290
-9.86826e-289
1.26956e-287
-1.63329e-286
2.10123e-285
-2.70325e-284
3.47774e-283
-4.47412e-282
5.75598e-281
-7.40509e-280
9.52668e-279
-1.22561e-277
1.57676e-276
-2.0285e-275
2.60968e-274
-3.35736e-273
4.31926e-272
-5.55674e-271
7.14878e-270
-9.19693e-269
1.18319e-267
-1.52218e-266
1.95829e-265
-2.51935e-264
3.24115e-263
-4.16975e-262
5.3644e-261
-6.90133e-260
8.87859e-259
-1.14223e-257
1.46949e-256
-1.8905e-255
2.43214e-254
-3.12896e-253
4.02542e-252
-5.17872e-251
6.66245e-250
-8.57127e-249
1.1027e-247
-1.41863e-246
1.82507e-245
-2.34796e-244
3.02066e-243
-3.88609e-242
4.99947e-241
-6.43184e-240
8.27459e-239
-1.06453e-237
1.36952e-236
-1.76189e-235
2.26669e-234
-2.9161e-233
3.75158e-232
-4.82642e-231
6.20921e-230
-7.98817e-229
1.02768e-227
-1.32212e-226
1.70091e-225
-2.18823e-224
2.81516e-223
-3.62172e-222
4.65936e-221
-5.99428e-220
7.71167e-219
-9.9211e-218
1.27635e-216
-1.64203e-215
2.11248e-214
-2.71772e-213
3.49636e-212
-4.49808e-211
5.7868e-210
-7.44474e-209
9.57769e-208
-1.23217e-206
1.5852e-205
-2.03936e-204
2.62365e-203
-3.37534e-202
4.34238e-201
-5.5865e-200
7.18705e-199
-9.24617e-198
1.18952e-196
-1.53033e-195
1.96877e-194
-2.53284e-193
3.2585e-192
-4.19208e-191
5.39313e-190
-6.93828e-189
8.92613e-188
-1.14835e-186
1.47736e-185
-1.90063e-184
2.44516e-183
-3.14571e-182
4.04698e-181
-5.20645e-180
6.69812e-179
-8.61716e-178
1.1086e-176
-1.42622e-175
1.83484e-174
-2.36053e-173
3.03683e-172
-3.90689e-171
5.02624e-170
-6.46627e-169
8.31889e-168
-1.07023e-166
1.37685e-165
-1.77133e-164
2.27882e-163
-2.93171e-162
3.77166e-161
-4.85226e-160
6.24245e-159
-8.03094e-158
1.03318e-156
-1.3292e-155
1.71002e-154
-2.19994e-153
2.83024e-152
-3.64111e-151
4.6843e-150
-6.02638e-149
7.75296e-148
-9.97422e-147
1.28319e-145
-1.65083e-144
2.12379e-143
-2.73227e-142
3.51508e-141
-4.52216e-140
5.81778e-139
-7.4846e-138
9.62897e-137
-1.23877e-135
1.59368e-134
-2.05028e-133
2.6377e-132
-3.39341e-131
4.36563e-130
-5.61641e-129
7.22553e-128
-9.29568e-127
1.19589e-125
-1.53852e-124
1.97931e-123
-2.5464e-122
3.27595e-121
-4.21452e-120
5.422e-119
-6.97543e-118
8.97392e-117
-1.1545e-115
1.48527e-114
-1.9108e-113
2.45826e-112
-3.16256e-111
4.06864e-110
-5.23433e-109
6.73398e-108
-8.6633e-107
1.11454e-105
-1.43386e-104
1.84466e-103
-2.37317e-102
3.05309e-101
-3.92781e-100
5.05315e-99
-6.5009e-98
8.36343e-97
-1.07596e-95
1.38423e-94
-1.78081e-93
2.29102e-92
-2.94741e-91
3.79186e-90
-4.87824e-89
6.27588e-88
-8.07394e-87
1.03872e-85
-1.33631e-84
1.71917e-83
-2.21172e-82
2.84539e-81
-3.66061e-80
4.70939e-79
-6.05864e-78
7.79447e-77
-1.00276e-75
1.29006e-74
-1.65966e-73
2.13517e-72
-2.7469e-71
3.5339e-70
-4.54638e-69
5.84893e-68
-7.52468e-67
9.68053e-66
-1.2454e-64
1.60222e-63
-2.06126e-62
2.65182e-61
-3.41158e-60
2.53525e-60
1.4912e-58
-1.52301e-57
-4.55632e-57
1.09975e-55
1.19688e-55
-5.469e-54
-4.55579e-54
2.76249e-52
2.83416e-52
-1.20766e-50
-2.29652e-50
3.47594e-49
1.7734e-48
-5.4095e-48
-2.79558e-46
-7.97947e-45
-1.3875e-43
-1.73774e-43
1.77074e-42
4.54962e-41
8.4192e-40
1.40343e-38
2.16118e-37
3.09549e-36
4.14101e-35
5.19173e-34
6.11859e-33
6.79657e-32
7.13298e-31
7.08826e-30
6.68265e-29
5.98789e-28
5.10769e-27
4.15381e-26
3.22503e-25
2.39349e-24
1.69997e-23
1.15671e-22
7.5476e-22
4.72703e-21
2.84399e-20
1.645e-19
9.15403e-19
4.90407e-18
2.53084e-17
1.25888e-16
6.03872e-16
2.79481e-15
1.24853e-14
5.38599e-14
2.24444e-13
9.03807e-13
3.51802e-12
1.32402e-11
4.81916e-11
1.69674e-10
5.77977e-10
1.90511e-09
6.07712e-09
1.87622e-08
5.60671e-08
1.62175e-07
4.54063e-07
1.23053e-06
3.22767e-06
8.19347e-06
2.01269e-05
4.78353e-05
0.000109977
0.00024453
0.000525689
0.00109233
0.00219311
0.00425273
0.00796135
0.0143814
0.0250541
0.0420685
0.0680393
0.105923
0.158614
0.228296
0.315616
0.418846
0.533314
0.651434
0.763558
0.859656
0.931544
0.975424
0.994603
0.999447
0.999981
1
1
1
1
1
1
1
1
1
1
1
1
1
1
1
1
1
1
1
1
1
1
1
1
1
1
1
1
1
1
1
1
1
1
1
1
1
1
1
1
1
1
1
1
1
1
1
1
1
1
1
1
1
1
1
1
1
1
1
1
1
1
1
1
1
1
1
1
1
1
0.999999
0.999997
0.999992
0.99998
0.999952
0.99989
0.999755
0.999473
0.998905
0.997803
0.99574
0.992026
0.985598
0.974914
0.957883
0.931891
0.893982
0.841262
0.771552
0.684208
0.580963
0.466493
0.348386
0.23629
0.14023
0.0683846
0.0245415
0.00538623
0.00055177
1.90728e-05
1.61218e-07
2.52632e-10
5.89304e-14
4.96022e-18
4.15835e-22
3.4897e-26
2.94164e-30
2.49415e-34
2.12624e-38
1.81977e-42
1.56085e-46
1.33956e-50
1.1491e-54
9.84706e-59
8.4286e-63
7.20732e-67
6.15869e-71
5.26063e-75
4.493e-79
3.83764e-83
3.2784e-87
2.80118e-91
2.39379e-95
2.04587e-99
1.7486e-103
1.49453e-107
1.27734e-111
1.09166e-115
9.32915e-120
7.97217e-124
6.81229e-128
5.82096e-132
4.97377e-136
4.24979e-140
3.63112e-144
3.10247e-148
2.65073e-152
2.26472e-156
1.93488e-160
1.65304e-164
1.41222e-168
1.20646e-172
1.03064e-176
8.80432e-181
7.52094e-185
6.42449e-189
5.48776e-193
4.68751e-197
4.00387e-201
3.41986e-205
2.92098e-209
2.49482e-213
2.1308e-217
1.81985e-221
1.55425e-225
1.32739e-229
1.13362e-233
9.68122e-238
8.26767e-242
7.06037e-246
6.02926e-250
5.14863e-254
4.39654e-258
3.75423e-262
3.2057e-266
2.73725e-270
2.33721e-274
1.99559e-278
1.70387e-282
1.45476e-286
1.24204e-290
1.0604e-294
9.05301e-299
7.72871e-303
6.59798e-307
5.63255e-311
4.80826e-315
4.1042e-319
2.96439e-323
0
0
0
0
0
0
0
0
0
0
0
0
0
0
0
0
0
0
0
0
0
0
0
0
0
0
0
0
0
0
0
0
0
0
0
0
0
0
0
0
0
0
0
0
0
0
0
0
0
0
0
0
0
0
0
0
0
0
0
0
0
0
0
0
0
0
0
0
0
0
0
0
0
0
0
0
0
0
0
0
0
0
0
0
0
0
0
0
0
0
0
0
0
0
0
0
0
0
0
0
0
0
0
0
0
0
0
0
0
0
0
0
0
0
0
0
0
0
0
0
0
0
0
0
0
0
0
0
0
0
0
0
0
0
0
0
0
0
0
0
0
0
0
0
0
0
0
0
0
0
0
0
0
0
0
0
0
0
0
0
0
0
0
0
0
0
0
0
0
0
0
0
0
0
0
0
0
0
0
0
0
0
0
0
0
0
0
0
0
0
0
0
0
0
0
0
0
0
0
0
0
0
0
0
0
0
0
0
0
0
0
0
0
0
0
0
0
0
0
0
0
0
0
0
0
0
0
0
0
0
0
0
0
0
0
0
0
0
0
0
0
0
0
0
0
0
0
0
0
0
0
0
0
0
0
0
0
0
0
0
0
0
0
0
0
0
0
0
0
0
0
0
0
0
0
0
0
0
0
0
0
0
0
0
0
)
;

boundaryField
{
    sides
    {
        type            zeroGradient;
    }
    empty
    {
        type            empty;
    }
}


// ************************************************************************* //
