/*--------------------------------*- C++ -*----------------------------------*\
| =========                 |                                                 |
| \\      /  F ield         | OpenFOAM: The Open Source CFD Toolbox           |
|  \\    /   O peration     | Version:  2312                                  |
|   \\  /    A nd           | Website:  www.openfoam.com                      |
|    \\/     M anipulation  |                                                 |
\*---------------------------------------------------------------------------*/
FoamFile
{
    version     2.0;
    format      ascii;
    arch        "LSB;label=32;scalar=64";
    class       volScalarField;
    location    "2.4";
    object      T;
}
// * * * * * * * * * * * * * * * * * * * * * * * * * * * * * * * * * * * * * //

dimensions      [0 0 0 1 0 0 0];

internalField   nonuniform List<scalar> 
1000
(
0
0
0
0
0
0
0
0
0
0
0
0
0
0
0
0
0
0
0
0
0
0
0
0
0
0
0
0
0
0
0
0
0
0
0
0
0
0
0
0
0
0
0
0
0
0
0
0
0
0
0
0
0
0
0
0
0
0
0
0
0
0
0
0
0
0
0
0
0
0
0
0
0
0
0
0
0
0
0
0
0
0
0
0
0
0
0
0
0
0
0
0
0
0
0
0
0
0
0
0
0
0
0
0
0
0
0
0
0
0
0
0
0
0
0
0
0
0
0
0
0
0
0
0
0
0
0
0
0
0
0
0
0
0
0
0
0
0
0
0
0
0
0
0
0
0
0
0
0
0
0
0
0
0
0
0
0
0
0
0
0
0
0
0
0
0
0
0
0
0
0
0
0
0
0
0
0
0
0
0
0
0
0
0
0
0
0
0
0
0
0
0
0
0
0
0
0
0
0
0
0
0
0
0
0
0
0
0
0
0
0
0
0
0
0
0
0
0
0
0
0
0
0
0
0
0
0
0
0
0
0
0
0
0
0
0
0
0
0
0
0
0
0
0
0
0
0
0
0
0
0
0
0
1.18576e-322
1.60324e-320
1.73923e-318
1.87176e-316
2.0048e-314
2.13705e-312
2.2671e-310
2.39347e-308
2.51462e-306
2.62902e-304
2.73514e-302
2.83151e-300
2.91673e-298
2.98952e-296
3.04875e-294
3.09346e-292
3.12288e-290
3.13649e-288
3.13396e-286
3.11526e-284
3.08057e-282
3.03033e-280
2.96522e-278
2.88616e-276
2.79423e-274
2.69074e-272
2.57712e-270
2.45489e-268
2.3257e-266
2.19121e-264
2.05308e-262
1.91295e-260
1.77241e-258
1.63295e-256
1.49592e-254
1.36257e-252
1.23398e-250
1.11106e-248
9.94568e-247
8.8507e-245
7.82981e-243
6.88554e-241
6.01896e-239
5.22977e-237
4.51652e-235
3.87674e-233
3.30715e-231
2.80379e-229
2.36223e-227
1.97773e-225
1.64535e-223
1.36011e-221
1.11712e-219
9.1162e-218
7.39083e-216
5.95276e-214
4.76286e-212
3.78548e-210
2.98851e-208
2.34341e-206
1.82506e-204
1.41163e-202
1.08432e-200
8.27105e-199
6.26481e-197
4.71167e-195
3.51834e-193
2.60838e-191
1.91977e-189
1.40265e-187
1.01728e-185
7.32322e-184
5.23242e-182
3.71037e-180
2.61106e-178
1.82337e-176
1.26346e-174
8.68659e-173
5.92525e-171
4.00963e-169
2.69161e-167
1.79225e-165
1.18368e-163
7.75321e-162
5.03631e-160
3.24409e-158
2.07199e-156
1.31209e-154
8.23733e-153
5.12647e-151
3.16245e-149
1.93359e-147
1.17167e-145
7.03568e-144
4.18627e-142
2.46791e-140
1.44136e-138
8.33899e-137
4.77871e-135
2.71219e-133
1.5244e-131
8.48404e-130
4.67502e-128
2.55032e-126
1.37718e-124
7.36068e-123
3.89341e-121
2.03787e-119
1.05537e-117
5.407e-116
2.74021e-114
1.37349e-112
6.80817e-111
3.33684e-109
1.6169e-107
7.74479e-106
3.66652e-104
1.71535e-102
7.92936e-101
3.62113e-99
1.63343e-97
7.27674e-96
3.20096e-94
1.39013e-92
5.95917e-91
2.52112e-89
1.05244e-87
4.33422e-86
1.76057e-84
7.05232e-83
2.78522e-81
1.08428e-79
4.1599e-78
1.57247e-76
5.85518e-75
2.14709e-73
7.75179e-72
2.75477e-70
9.63352e-69
3.31421e-67
1.12136e-65
3.73042e-64
1.21977e-62
3.919e-61
1.23681e-59
3.83279e-58
1.16589e-56
3.47996e-55
1.01882e-53
2.92452e-52
8.22749e-51
2.26752e-49
6.11942e-48
1.61638e-46
4.17672e-45
1.05528e-43
2.60562e-42
6.28375e-41
1.47924e-39
3.39705e-38
7.60554e-37
1.65892e-35
3.52274e-34
7.27718e-33
1.46126e-31
2.84975e-30
5.39274e-29
9.89293e-28
1.75757e-26
3.02065e-25
5.01639e-24
8.03984e-23
1.24192e-21
1.84634e-20
2.63775e-19
3.61525e-18
4.74508e-17
5.95247e-16
7.12146e-15
8.1066e-14
8.75759e-13
8.95293e-12
8.63376e-11
7.82616e-10
6.6417e-09
5.25333e-08
3.85288e-07
2.60481e-06
1.61232e-05
9.065e-05
0.000458643
0.00206528
0.00816894
0.0279406
0.0811346
0.195957
0.385972
0.614028
0.804043
0.918865
0.972059
0.991831
0.997935
0.999541
0.999909
0.999984
0.999997
1
1
1
1
1
1
1
1
1
1
1
1
1
1
1
1
1
1
1
1
1
1
1
1
1
1
1
1
1
1
1
1
1
1
1
1
1
1
1
1
1
1
1
1
1
1
1
1
1
1
1
1
1
1
1
1
1
1
1
1
1
1
1
1
1
1
1
1
1
1
1
1
1
1
1
1
1
1
1
1
0.999997
0.999984
0.999909
0.999541
0.997935
0.991831
0.972059
0.918865
0.804043
0.614028
0.385972
0.195957
0.0811346
0.0279406
0.00816894
0.00206528
0.000458643
9.065e-05
1.61232e-05
2.60481e-06
3.85288e-07
5.25333e-08
6.6417e-09
7.82616e-10
8.63376e-11
8.95293e-12
8.75759e-13
8.1066e-14
7.12146e-15
5.95247e-16
4.74508e-17
3.61525e-18
2.63775e-19
1.84634e-20
1.24192e-21
8.03984e-23
5.01639e-24
3.02065e-25
1.75757e-26
9.89293e-28
5.39274e-29
2.84975e-30
1.46126e-31
7.27718e-33
3.52274e-34
1.65892e-35
7.60554e-37
3.39705e-38
1.47924e-39
6.28375e-41
2.60562e-42
1.05528e-43
4.17672e-45
1.61638e-46
6.11942e-48
2.26752e-49
8.22749e-51
2.92452e-52
1.01882e-53
3.47996e-55
1.16589e-56
3.83279e-58
1.23681e-59
3.919e-61
1.21977e-62
3.73042e-64
1.12136e-65
3.31421e-67
9.63352e-69
2.75477e-70
7.75179e-72
2.14709e-73
5.85518e-75
1.57247e-76
4.1599e-78
1.08428e-79
2.78522e-81
7.05232e-83
1.76057e-84
4.33422e-86
1.05244e-87
2.52112e-89
5.95917e-91
1.39013e-92
3.20096e-94
7.27674e-96
1.63343e-97
3.62113e-99
7.92936e-101
1.71535e-102
3.66652e-104
7.74479e-106
1.6169e-107
3.33684e-109
6.80817e-111
1.37349e-112
2.74021e-114
5.407e-116
1.05537e-117
2.03787e-119
3.89341e-121
7.36068e-123
1.37718e-124
2.55032e-126
4.67502e-128
8.48404e-130
1.5244e-131
2.71219e-133
4.77871e-135
8.33899e-137
1.44136e-138
2.46791e-140
4.18627e-142
7.03568e-144
1.17167e-145
1.93359e-147
3.16245e-149
5.12647e-151
8.23733e-153
1.31209e-154
2.07199e-156
3.24409e-158
5.03631e-160
7.75321e-162
1.18368e-163
1.79225e-165
2.69161e-167
4.00963e-169
5.92525e-171
8.68659e-173
1.26346e-174
1.82337e-176
2.61106e-178
3.71037e-180
5.23242e-182
7.32322e-184
1.01728e-185
1.40265e-187
1.91977e-189
2.60838e-191
3.51834e-193
4.71167e-195
6.26481e-197
8.27105e-199
1.08432e-200
1.41163e-202
1.82506e-204
2.34341e-206
2.98851e-208
3.78548e-210
4.76286e-212
5.95276e-214
7.39083e-216
9.1162e-218
1.11712e-219
1.36011e-221
1.64535e-223
1.97773e-225
2.36223e-227
2.80379e-229
3.30715e-231
3.87674e-233
4.51652e-235
5.22977e-237
6.01896e-239
6.88554e-241
7.82981e-243
8.8507e-245
9.94568e-247
1.11106e-248
1.23398e-250
1.36257e-252
1.49592e-254
1.63295e-256
1.77241e-258
1.91295e-260
2.05308e-262
2.19121e-264
2.3257e-266
2.45489e-268
2.57712e-270
2.69074e-272
2.79423e-274
2.88616e-276
2.96522e-278
3.03033e-280
3.08057e-282
3.11526e-284
3.13396e-286
3.13649e-288
3.12288e-290
3.09346e-292
3.04875e-294
2.98952e-296
2.91673e-298
2.83151e-300
2.73514e-302
2.62902e-304
2.51462e-306
2.39347e-308
2.2671e-310
2.13705e-312
2.0048e-314
1.87176e-316
1.73923e-318
1.60324e-320
1.18576e-322
0
0
0
0
0
0
0
0
0
0
0
0
0
0
0
0
0
0
0
0
0
0
0
0
0
0
0
0
0
0
0
0
0
0
0
0
0
0
0
0
0
0
0
0
0
0
0
0
0
0
0
0
0
0
0
0
0
0
0
0
0
0
0
0
0
0
0
0
0
0
0
0
0
0
0
0
0
0
0
0
0
0
0
0
0
0
0
0
0
0
0
0
0
0
0
0
0
0
0
0
0
0
0
0
0
0
0
0
0
0
0
0
0
0
0
0
0
0
0
0
0
0
0
0
0
0
0
0
0
0
0
0
0
0
0
0
0
0
0
0
0
0
0
0
0
0
0
0
0
0
0
0
0
0
0
0
0
0
0
0
0
0
0
0
0
0
0
0
0
0
0
0
0
0
0
0
0
0
0
0
0
0
0
0
0
0
0
0
0
0
0
0
0
0
0
0
0
0
0
0
0
0
0
0
0
0
0
0
0
0
0
0
0
0
0
0
0
0
0
0
0
0
0
0
0
0
0
0
0
0
0
0
0
0
0
0
0
0
0
0
0
0
0
0
0
0
0
0
0
0
0
0
0
)
;

boundaryField
{
    sides
    {
        type            zeroGradient;
    }
    empty
    {
        type            empty;
    }
}


// ************************************************************************* //
