/*--------------------------------*- C++ -*----------------------------------*\
| =========                 |                                                 |
| \\      /  F ield         | OpenFOAM: The Open Source CFD Toolbox           |
|  \\    /   O peration     | Version:  2312                                  |
|   \\  /    A nd           | Website:  www.openfoam.com                      |
|    \\/     M anipulation  |                                                 |
\*---------------------------------------------------------------------------*/
FoamFile
{
    version     2.0;
    format      ascii;
    arch        "LSB;label=32;scalar=64";
    class       volScalarField;
    location    "4.9";
    object      T;
}
// * * * * * * * * * * * * * * * * * * * * * * * * * * * * * * * * * * * * * //

dimensions      [0 0 0 1 0 0 0];

internalField   nonuniform List<scalar> 
1000
(
0.501256
0.509002
0.52147
0.521628
0.533068
0.521707
0.521572
0.506927
0.497989
0.494228
0.487291
0.500224
0.50187
0.522171
0.528693
0.539913
0.541868
0.535354
0.526592
0.509403
0.49214
0.481533
0.464209
0.474435
0.465097
0.497734
0.497835
0.542394
0.544564
0.587105
0.577891
0.609855
0.576042
0.597085
0.532386
0.547087
0.455373
0.468409
0.361436
0.375543
0.266715
0.283698
0.182357
0.204073
0.114271
0.141229
0.0649078
0.0936988
0.0343151
0.057333
0.0198926
0.0289515
0.0164097
0.00775464
0.0176351
-0.00594904
0.0188531
-0.012695
0.0181642
-0.0142479
0.0155605
-0.0123255
0.0111443
-0.00761884
0.0046747
-0.000570029
-0.00320968
0.00706015
-0.0100548
0.012106
-0.012752
0.0120366
-0.0100278
0.00709499
-0.00364908
0.000163684
0.00297592
-0.00548572
0.00721826
-0.00812558
0.00822606
-0.00756368
0.0061967
-0.00420975
0.001746
0.000964252
-0.00359879
0.00577754
-0.00713336
0.00740211
-0.00650257
0.00457737
-0.00197654
-0.000815635
0.00329058
-0.00502975
0.00578977
-0.00553636
0.0044229
-0.00272836
0.00078042
0.00111059
-0.00269109
0.00377656
-0.00424833
0.00405118
-0.00320176
0.00180638
-7.42347e-05
-0.00169222
0.00314199
-0.00395279
0.00392085
-0.00303212
0.00148513
0.000349734
-0.00202668
0.0031475
-0.00347072
0.00297102
-0.00183167
0.00037709
0.0010272
-0.00207167
0.0025681
-0.00247075
0.00185925
-0.000900308
-0.000193827
0.00120069
-0.00191713
0.00218899
-0.0019439
0.00122065
-0.000180523
-0.000915065
0.00176608
-0.0021221
0.00186835
-0.00107495
-1.54958e-05
0.00106344
-0.001746
0.00186634
-0.00141695
0.000573509
0.000375524
-0.00113302
0.00148995
-0.00138095
0.000885313
-0.000182793
-0.00051188
0.00101077
-0.00119493
0.00103335
-0.000582813
-2.68421e-05
0.00062072
-0.0010205
0.00109555
-0.000810512
0.000249627
0.0003996
-0.000906356
0.00108241
-0.000859683
0.000323566
0.000316972
-0.000813231
0.000978974
-0.000765572
0.000276856
0.00028115
-0.000690322
0.000808481
-0.000617936
0.000218641
0.000223687
-0.00054668
0.000648115
-0.000512365
0.000204404
0.000159309
-0.000450434
0.000568343
-0.000471826
0.000195339
0.000157769
-0.000448517
0.000555364
-0.000427952
0.000115936
0.000245886
-0.000495179
0.000517998
-0.000305418
-3.99826e-05
0.00035359
-0.000489901
0.000393317
-0.000121931
-0.000186547
0.000386486
-0.000394703
0.000224243
3.14309e-05
-0.000250203
0.000339459
-0.000272865
9.31478e-05
0.000113962
-0.000258836
0.000283416
-0.000181802
1.05112e-06
0.000177598
-0.000272022
0.00023606
-8.41508e-05
-0.000110794
0.000250147
-0.000260008
0.000133063
6.36715e-05
-0.000223312
0.000258585
-0.000152038
-3.36951e-05
0.000192717
-0.000237829
0.000150003
1.39612e-05
-0.00015837
0.000205602
-0.000138149
2.68826e-06
0.000122086
-0.000171352
0.0001267
-1.99904e-05
-8.87593e-05
0.000144122
-0.000121527
3.64689e-05
6.50263e-05
-0.000129378
0.000122139
-4.66087e-05
-5.58034e-05
0.000126417
-0.000122569
4.4752e-05
6.07368e-05
-0.000128507
0.00011541
-2.96491e-05
-7.32531e-05
0.000126628
-9.70916e-05
6.53472e-06
8.37106e-05
-0.000115143
7.09127e-05
1.53836e-05
-8.52737e-05
9.56025e-05
-4.51008e-05
-2.89505e-05
7.83853e-05
-7.52936e-05
2.66188e-05
3.4174e-05
-6.97755e-05
6.08721e-05
-1.54347e-05
-3.76634e-05
6.59096e-05
-5.205e-05
4.70597e-06
4.58862e-05
-6.61521e-05
4.14887e-05
1.22404e-05
-5.78484e-05
6.24728e-05
-2.20947e-05
-3.4127e-05
6.47185e-05
-4.71431e-05
-4.75453e-06
5.13598e-05
-5.79872e-05
2.1369e-05
2.89458e-05
-5.46786e-05
3.84184e-05
4.65874e-06
-4.07626e-05
4.42665e-05
-1.57278e-05
-2.13421e-05
3.99129e-05
-2.88396e-05
-1.38663e-06
2.83096e-05
-3.37578e-05
1.53523e-05
1.31111e-05
-3.14671e-05
2.67672e-05
-2.30883e-06
-2.40586e-05
3.23026e-05
-1.54379e-05
-1.39675e-05
3.25612e-05
-2.48227e-05
-3.40289e-06
2.88118e-05
-2.99865e-05
5.97755e-06
2.25415e-05
-3.11915e-05
1.31767e-05
1.51302e-05
-2.91574e-05
1.78106e-05
7.66431e-06
-2.48067e-05
1.99746e-05
8.72605e-07
-1.90744e-05
2.00783e-05
-4.84984e-06
-1.27901e-05
1.86894e-05
-9.36859e-06
-6.62093e-06
1.64055e-05
-1.27189e-05
-1.05857e-06
1.37614e-05
-1.50209e-05
3.57097e-06
1.11707e-05
-1.64143e-05
7.08822e-06
8.89825e-06
-1.702e-05
9.44186e-06
7.05667e-06
-1.6929e-05
1.06938e-05
5.6252e-06
-1.62132e-05
1.10056e-05
4.48581e-06
-1.49511e-05
1.06203e-05
3.47297e-06
-1.32568e-05
9.83489e-06
2.4301e-06
-1.12999e-05
8.95911e-06
1.26311e-06
-9.30612e-06
8.2631e-06
-2.16661e-08
-7.53247e-06
7.92296e-06
-1.30717e-06
-6.21744e-06
7.97837e-06
-2.39115e-06
-5.51872e-06
8.3193e-06
-3.04627e-06
-5.45756e-06
8.71445e-06
-3.1011e-06
-5.89392e-06
8.88257e-06
-2.51639e-06
-6.55125e-06
8.59126e-06
-1.42527e-06
-7.09476e-06
7.75156e-06
-1.12341e-07
-7.245e-06
6.46865e-06
1.0739e-06
-6.88647e-06
5.01744e-06
1.85094e-06
-6.12206e-06
3.7385e-06
2.1234e-06
-5.23619e-06
2.88745e-06
2.03432e-06
-4.56586e-06
2.50397e-06
1.90598e-06
-4.32723e-06
2.37326e-06
2.0789e-06
-4.48198e-06
2.11951e-06
2.71738e-06
-4.72609e-06
1.40487e-06
3.68659e-06
-4.63138e-06
1.37155e-07
4.58781e-06
-3.88358e-06
-1.43834e-06
4.95942e-06
-2.48624e-06
-2.84148e-06
4.54492e-06
-7.93687e-07
-3.62043e-06
3.46294e-06
6.76405e-07
-3.62357e-06
2.14898e-06
1.55413e-06
-3.09209e-06
1.07839e-06
1.8462e-06
-2.48246e-06
4.46745e-07
1.90078e-06
-2.12029e-06
4.98474e-08
2.10313e-06
-1.94181e-06
-5.1347e-07
2.51934e-06
-1.55271e-06
-1.4445e-06
2.79081e-06
-6.00168e-07
-2.47864e-06
2.41553e-06
8.30258e-07
-3.01867e-06
1.22228e-06
2.16044e-06
-2.61297e-06
-3.76823e-07
2.72013e-06
-1.38302e-06
-1.63312e-06
2.29175e-06
1.68249e-08
-2.04141e-06
1.29406e-06
9.2468e-07
-1.72542e-06
3.89856e-07
1.20395e-06
-1.23002e-06
-1.22422e-07
1.23836e-06
-9.08793e-07
-4.96408e-07
1.37366e-06
-5.70584e-07
-1.07355e-06
1.42931e-06
1.76372e-07
-1.68739e-06
9.01252e-07
1.24563e-06
-1.70083e-06
-3.04798e-07
1.91658e-06
-7.51904e-07
-1.49999e-06
1.53265e-06
6.4724e-07
-1.78882e-06
3.06006e-07
1.48983e-06
-1.0268e-06
-8.05661e-07
1.30466e-06
1.9125e-08
-1.10912e-06
5.88367e-07
5.75216e-07
-8.32796e-07
6.54567e-08
6.75433e-07
-5.75153e-07
-2.15032e-07
7.88022e-07
-3.63218e-07
-6.52692e-07
8.57903e-07
2.32272e-07
-1.11532e-06
3.30533e-07
1.06877e-06
-8.66338e-07
-7.45985e-07
1.23115e-06
2.48419e-07
-1.34285e-06
2.86611e-07
1.19473e-06
-7.2723e-07
-8.46807e-07
9.80086e-07
4.01211e-07
-1.00809e-06
2.88189e-08
8.31259e-07
-3.4745e-07
-5.13618e-07
4.95768e-07
1.42149e-07
-4.5943e-07
1.95887e-07
2.65023e-07
-4.31685e-07
3.18097e-08
5.26376e-07
-3.62245e-07
-4.74256e-07
6.59984e-07
2.98754e-07
-8.73594e-07
-4.34535e-08
9.7372e-07
-2.39026e-07
-9.54834e-07
4.97744e-07
8.32345e-07
-6.91824e-07
-6.36575e-07
7.95517e-07
4.0535e-07
-7.99776e-07
-1.7677e-07
7.10832e-07
-1.6671e-08
-5.4668e-07
1.51968e-07
3.32503e-07
-2.17322e-07
-9.59856e-08
2.11925e-07
-1.36752e-07
-1.44275e-07
3.44127e-07
2.95983e-08
-5.10825e-07
1.13064e-07
6.28311e-07
-2.63648e-07
-6.94355e-07
4.03412e-07
7.11863e-07
-5.16674e-07
-6.87321e-07
5.91887e-07
6.29167e-07
-6.22107e-07
-5.46288e-07
6.04976e-07
4.46843e-07
-5.4235e-07
-3.37469e-07
4.39708e-07
2.22922e-07
-3.0545e-07
-1.06122e-07
1.5016e-07
-1.1462e-08
1.41376e-08
1.29158e-07
-1.74728e-07
-2.46293e-07
3.1898e-07
3.61352e-07
-4.35187e-07
-4.71251e-07
5.13484e-07
5.70836e-07
-5.46844e-07
-6.52753e-07
5.32106e-07
7.07814e-07
-4.70913e-07
-7.25913e-07
3.70404e-07
6.97516e-07
-2.43426e-07
-6.15627e-07
1.08042e-07
4.78016e-07
1.39041e-08
-2.8934e-07
-9.92683e-08
6.26957e-08
1.27087e-07
1.79991e-07
-8.27447e-08
-4.09242e-07
-3.77728e-08
5.91368e-07
2.2446e-07
-6.93874e-07
-4.51795e-07
6.92438e-07
6.80262e-07
-5.7832e-07
-8.61643e-07
3.64454e-07
9.48126e-07
-8.80962e-08
-9.04187e-07
-1.92012e-07
7.18943e-07
4.05198e-07
-4.15563e-07
-4.84796e-07
5.37839e-08
3.87923e-07
2.77784e-07
-1.14163e-07
-4.80789e-07
-2.83416e-07
4.75419e-07
7.01526e-07
-2.31224e-07
-1.00819e-06
-2.09821e-07
1.08122e-06
7.29525e-07
-8.54848e-07
-1.15742e-06
3.59038e-07
1.32262e-06
2.67668e-07
-1.12194e-06
-8.06592e-07
5.80058e-07
1.03093e-06
1.28095e-07
-8.03676e-07
-7.17044e-07
1.64013e-07
8.95481e-07
6.44997e-07
-5.06549e-07
-1.24265e-06
-3.56855e-07
1.26957e-06
1.33325e-06
-5.85309e-07
-1.91584e-06
-5.94276e-07
1.69784e-06
1.72295e-06
-6.36973e-07
-2.15726e-06
-8.18769e-07
1.52523e-06
1.87611e-06
-3.86116e-08
-1.81564e-06
-1.48417e-06
4.97504e-07
2.00862e-06
1.37553e-06
-9.59528e-07
-2.52389e-06
-1.21918e-06
1.88348e-06
3.10015e-06
5.00604e-07
-3.10444e-06
-3.17147e-06
7.46578e-07
4.03531e-06
2.61624e-06
-1.96045e-06
-4.39299e-06
-1.91772e-06
2.70803e-06
4.52299e-06
1.62063e-06
-3.1417e-06
-5.00505e-06
-1.78615e-06
3.7751e-06
6.06683e-06
2.03556e-06
-4.90606e-06
-7.44655e-06
-2.05995e-06
6.31701e-06
8.77448e-06
2.03092e-06
-7.48868e-06
-1.00195e-05
-2.54824e-06
8.02238e-06
1.15599e-05
4.25507e-06
-7.82154e-06
-1.384e-05
-7.51059e-06
6.86816e-06
1.69075e-05
1.23569e-05
-4.79682e-06
-2.01202e-05
-1.86733e-05
6.12674e-07
2.20758e-05
2.61893e-05
7.19607e-06
-2.06271e-05
-3.40606e-05
-2.00443e-05
1.29095e-05
3.99493e-05
3.80553e-05
4.34546e-06
-3.89287e-05
-5.81727e-05
-3.34588e-05
2.30982e-05
7.17157e-05
7.23565e-05
1.63373e-05
-6.2616e-05
-0.000108542
-8.19151e-05
1.00296e-05
0.000112778
0.000155832
9.78867e-05
-4.12133e-05
-0.0001833
-0.000232883
-0.000136571
7.41725e-05
0.000287452
0.000367189
0.000233225
-8.05961e-05
-0.000426794
-0.000608708
-0.000480788
-3.69851e-05
0.0005583
0.00102008
0.00106242
0.00054222
-0.000437514
-0.00152056
-0.00220527
-0.00203657
-0.000813622
0.00126592
0.0035859
0.0052392
0.00528297
0.00306228
-0.00148209
-0.00760867
-0.0137358
-0.0175856
-0.0164828
-0.00774397
0.0109196
0.0410571
0.0832474
0.137017
0.20091
0.272687
0.349606
0.428728
0.507203
0.582506
0.652602
0.716036
0.771946
0.820017
0.860388
0.893535
0.920163
0.941112
0.957265
0.969485
0.978561
0.985178
0.989911
0.993233
0.995525
0.997086
0.998136
0.998832
0.99928
0.999556
0.999722
0.999828
0.999901
0.999954
0.999984
0.99999
0.999983
0.999978
0.999985
1
1.00002
1.00002
0.999999
0.999978
0.999974
0.999992
1.00002
1.00003
1.00002
0.999987
0.999959
0.999961
0.999996
1.00004
1.00006
1.00003
0.999976
0.999929
0.999928
0.999984
1.00006
1.00011
1.00008
0.999991
0.999887
0.999843
0.999902
1.00004
1.00018
1.00023
1.00014
0.999925
0.999713
0.999634
0.999767
1.00008
1.00043
1.00061
1.00048
1.00004
0.99944
0.998979
0.998938
0.999459
1.00044
1.00152
1.0022
1.00204
1.00082
0.998735
0.996413
0.994759
0.994717
0.99694
1.00148
1.00761
1.01373
1.01758
1.01648
1.00775
0.989081
0.958941
0.91675
0.862983
0.799093
0.727315
0.650393
0.571269
0.492795
0.417495
0.347402
0.283967
0.228052
0.179978
0.13961
0.106469
0.0798423
0.0588902
0.0427311
0.0305087
0.0214371
0.0148268
0.0100957
0.00676875
0.00446907
0.00290615
0.00186148
0.00117458
0.000730167
0.000447207
0.000269876
0.000160473
9.4022e-05
5.42812e-05
3.08782e-05
1.7307e-05
9.55731e-06
5.19945e-06
2.78639e-06
1.47073e-06
7.6447e-07
3.91239e-07
1.97096e-07
9.77118e-08
4.76553e-08
2.28562e-08
1.07753e-08
4.99063e-09
2.26935e-09
1.01237e-09
4.42646e-10
1.8948e-10
7.92928e-11
3.23804e-11
1.28731e-11
4.9666e-12
1.85137e-12
6.6249e-13
2.25284e-13
7.15513e-14
2.05101e-14
4.86897e-15
6.56413e-16
-2.05523e-16
-2.38939e-16
-1.42586e-16
-6.87101e-17
-2.92112e-17
-1.12654e-17
-3.95984e-18
-1.25232e-18
-3.41523e-19
-6.99315e-20
-3.05484e-21
7.08003e-21
5.22098e-21
2.62117e-21
1.09513e-21
3.99186e-22
1.2709e-22
3.38915e-23
6.3982e-24
-4.00612e-26
-8.26698e-25
-5.35643e-25
-2.46386e-25
-9.3727e-26
-3.02909e-26
-8.03347e-27
-1.46359e-27
3.80106e-29
2.00182e-28
1.21999e-28
5.29561e-29
1.87357e-29
5.44874e-30
1.18745e-30
9.82823e-32
-7.76269e-32
-5.91071e-32
-2.72304e-32
-9.81658e-33
-2.84922e-33
-6.06446e-34
-4.25703e-35
4.28966e-35
3.04542e-35
1.3354e-35
4.53724e-36
1.20285e-36
2.07735e-37
-1.03492e-38
-2.88494e-38
-1.56105e-38
-6.1755e-39
-1.27447e-39
)
;

boundaryField
{
    sides
    {
        type            zeroGradient;
    }
    empty
    {
        type            empty;
    }
}


// ************************************************************************* //
