/*--------------------------------*- C++ -*----------------------------------*\
| =========                 |                                                 |
| \\      /  F ield         | OpenFOAM: The Open Source CFD Toolbox           |
|  \\    /   O peration     | Version:  2312                                  |
|   \\  /    A nd           | Website:  www.openfoam.com                      |
|    \\/     M anipulation  |                                                 |
\*---------------------------------------------------------------------------*/
FoamFile
{
    version     2.0;
    format      ascii;
    arch        "LSB;label=32;scalar=64";
    class       volScalarField;
    location    "2.7";
    object      T;
}
// * * * * * * * * * * * * * * * * * * * * * * * * * * * * * * * * * * * * * //

dimensions      [0 0 0 1 0 0 0];

internalField   nonuniform List<scalar> 
1000
(
0
0
0
0
0
0
0
0
0
0
0
0
0
0
0
-1.97626e-323
2.56914e-322
-2.6729e-321
2.87991e-320
-3.09754e-319
3.31976e-318
-3.54735e-317
3.77888e-316
-4.01312e-315
4.24873e-314
-4.48425e-313
4.71815e-312
-4.9488e-311
5.17454e-310
-5.39367e-309
5.60445e-308
-5.80516e-307
5.99412e-306
-6.16968e-305
6.33026e-304
-6.4744e-303
6.60073e-302
-6.70804e-301
6.79527e-300
-6.86154e-299
6.90615e-298
-6.92862e-297
6.92866e-296
-6.90622e-295
6.86146e-294
-6.79473e-293
6.70664e-292
-6.59796e-291
6.46969e-290
-6.32298e-289
6.15914e-288
-5.97963e-287
5.78603e-286
-5.58002e-285
5.36332e-284
-5.13773e-283
4.90506e-282
-4.6671e-281
4.42565e-280
-4.18244e-279
3.93912e-278
-3.69727e-277
3.45838e-276
-3.2238e-275
2.99477e-274
-2.77239e-273
2.55761e-272
-2.35126e-271
2.154e-270
-1.96639e-269
1.78881e-268
-1.62153e-267
1.46469e-266
-1.31833e-265
1.18237e-264
-1.05665e-263
9.40914e-263
-8.34843e-262
7.38059e-261
-6.50134e-260
5.70605e-259
-4.98981e-258
4.34753e-257
-3.77403e-256
3.26414e-255
-2.81271e-254
2.41473e-253
-2.06536e-252
1.75995e-251
-1.49409e-250
1.26362e-249
-1.06467e-248
8.93658e-248
-7.47263e-247
6.22469e-246
-5.16532e-245
4.2698e-244
-3.51593e-243
2.88397e-242
-2.35642e-241
1.91787e-240
-1.55483e-239
1.25556e-238
-1.0099e-237
8.09096e-237
-6.45642e-236
5.13155e-235
-4.06222e-234
3.2028e-233
-2.51501e-232
1.96692e-231
-1.53202e-230
1.18841e-229
-9.18084e-229
7.06329e-228
-5.41168e-227
4.12905e-226
-3.13729e-225
2.37375e-224
-1.78849e-223
1.34184e-222
-1.00246e-221
7.45731e-221
-5.52374e-220
4.07393e-219
-2.99168e-218
2.18741e-217
-1.59238e-216
1.15415e-215
-8.32838e-215
5.98326e-214
-4.2794e-213
3.04711e-212
-2.15994e-211
1.52418e-210
-1.07069e-209
7.48706e-209
-5.21159e-208
3.61102e-207
-2.49048e-206
1.70968e-205
-1.16821e-204
7.94482e-204
-5.37773e-203
3.62286e-202
-2.42903e-201
1.62081e-200
-1.07631e-199
7.1127e-199
-4.67751e-198
3.06102e-197
-1.99332e-196
1.29162e-195
-8.32771e-195
5.34243e-194
-3.41005e-193
2.1656e-192
-1.36829e-191
8.60101e-191
-5.37868e-190
3.34613e-189
-2.0708e-188
1.27482e-187
-7.80649e-187
4.75497e-186
-2.88077e-185
1.73589e-184
-1.04034e-183
6.20081e-183
-3.6756e-182
2.16669e-181
-1.2701e-180
7.4034e-180
-4.29105e-179
2.47295e-178
-1.41699e-177
8.07237e-177
-4.57192e-176
2.57418e-175
-1.4408e-174
8.01624e-174
-4.43323e-173
2.43686e-172
-1.33132e-171
7.2285e-171
-3.9004e-170
2.09142e-169
-1.11434e-168
5.89956e-168
-3.10325e-167
1.62175e-166
-8.41971e-166
4.34237e-165
-2.22457e-164
1.13194e-163
-5.7205e-163
2.87107e-162
-1.43094e-161
7.0817e-161
-3.47981e-160
1.69763e-159
-8.22174e-159
3.95258e-158
-1.88606e-157
8.93206e-157
-4.19784e-156
1.95766e-155
-9.05821e-155
4.1581e-154
-1.89343e-153
8.55176e-153
-3.83057e-152
1.70145e-151
-7.49323e-151
3.27155e-150
-1.41584e-149
6.07275e-149
-2.58109e-148
1.08691e-147
-4.53409e-147
1.87331e-146
-7.66432e-146
3.10452e-145
-1.24474e-144
4.93895e-144
-1.93889e-143
7.5288e-143
-2.8909e-142
1.09736e-141
-4.11657e-141
1.52561e-140
-5.58357e-140
2.01728e-139
-7.19133e-139
2.52831e-138
-8.76183e-138
2.99114e-137
-1.00522e-136
3.32298e-136
-1.07958e-135
3.44344e-135
-1.077e-134
3.2984e-134
-9.87397e-134
2.88298e-133
-8.18759e-133
2.25354e-132
-5.98163e-132
1.5203e-131
-3.6595e-131
8.18816e-131
-1.64153e-130
2.68593e-130
-2.32358e-130
-6.4752e-130
4.71534e-129
-1.86476e-128
5.89848e-128
-1.60451e-127
3.78113e-127
-7.40751e-127
1.01377e-126
1.06805e-127
-7.18003e-126
3.27869e-125
-1.04915e-124
2.68874e-124
-5.46078e-124
7.31921e-124
2.48232e-124
-5.89824e-123
2.48494e-122
-7.24804e-122
1.60021e-121
-2.35334e-121
-5.38921e-123
1.54763e-120
-6.6766e-120
1.87899e-119
-3.74748e-119
3.86533e-119
7.73359e-119
-5.74039e-118
1.90704e-117
-4.25818e-117
5.41175e-117
4.95913e-117
-5.48039e-116
1.91012e-115
-4.22364e-115
4.80654e-115
7.64179e-115
-6.07503e-114
1.90869e-113
-3.62915e-113
2.06341e-113
1.49058e-112
-7.02185e-112
1.74148e-111
-2.19171e-111
-2.66581e-111
2.36948e-110
-7.13886e-110
1.156e-109
2.11951e-110
-7.97001e-109
2.75192e-108
-4.94082e-108
5.7136e-109
2.85686e-107
-1.04107e-106
1.87561e-106
-9.21028e-108
-1.12316e-105
3.90126e-105
-6.36278e-105
-2.45033e-105
4.71684e-104
-1.41897e-103
1.80503e-103
2.73555e-103
-1.98894e-102
4.75944e-102
-3.17887e-102
-1.87425e-101
7.84101e-101
-1.32333e-100
-6.19535e-101
9.88785e-100
-2.65331e-99
2.11375e-99
9.55712e-99
-4.12305e-98
6.50386e-98
5.51292e-98
-5.48901e-97
1.25944e-96
-3.475e-97
-6.49386e-96
2.03832e-95
-1.85548e-95
-6.91028e-95
2.99627e-94
-4.09308e-94
-6.5836e-94
4.17052e-93
-7.20757e-93
-5.48528e-93
5.64997e-92
-1.13941e-91
-3.803e-92
7.60545e-91
-1.69024e-90
-2.10901e-91
1.03269e-89
-2.40047e-89
-1.66216e-90
1.42629e-88
-3.28782e-88
-4.90239e-89
2.00438e-87
-4.33286e-87
-1.61592e-87
2.84431e-86
-5.42515e-86
-4.24665e-86
4.01883e-85
-6.27358e-85
-9.40684e-85
5.54775e-84
-6.28192e-84
-1.83642e-83
7.30313e-83
-4.42363e-83
-3.22478e-82
8.85922e-82
7.82549e-83
-5.11263e-81
9.31373e-81
1.09936e-80
-7.23762e-80
7.18611e-80
2.71705e-79
-8.85611e-79
6.20064e-80
4.789e-78
-8.59584e-78
-1.17801e-77
6.70682e-77
-4.62594e-77
-2.92412e-76
7.23878e-76
4.50536e-76
-4.65601e-75
4.7185e-75
1.8171e-74
-5.28033e-74
-2.07881e-74
3.16038e-73
-3.38698e-73
-1.22978e-72
3.52429e-72
1.82375e-72
-2.13624e-71
1.82978e-71
9.06934e-71
-2.12862e-70
-2.18394e-70
1.40081e-69
-5.22277e-70
-6.81813e-69
1.06537e-68
2.39761e-68
-8.29095e-68
-3.60439e-68
4.74723e-67
-3.06663e-67
-2.17579e-66
3.78148e-66
7.67213e-66
-2.70582e-65
-1.46976e-65
1.54053e-64
-6.06704e-65
-7.45453e-64
9.43319e-64
3.07229e-63
-7.31954e-63
-1.01076e-62
4.52254e-62
1.86122e-62
-2.4464e-61
7.37152e-62
1.19795e-60
-1.14883e-60
-5.36849e-60
9.05639e-60
2.19189e-59
-5.79846e-59
-7.94459e-59
3.32722e-58
2.3534e-58
-1.77935e-57
-3.797e-58
9.05257e-57
-1.77332e-57
-4.4383e-56
2.48573e-56
2.1166e-55
-1.90369e-55
-9.89299e-55
1.21052e-54
4.56285e-54
-7.00253e-54
-2.09029e-53
3.82017e-53
9.57306e-53
-2.00111e-52
-4.41053e-52
1.01669e-51
2.05574e-51
-5.03896e-51
-9.73508e-51
2.44338e-50
4.69421e-50
-1.15999e-49
-2.30412e-49
5.38427e-49
1.14807e-48
-2.43441e-48
-5.77965e-48
1.06476e-47
2.92235e-47
-4.45116e-47
-1.47446e-46
1.73967e-46
7.37394e-46
-6.06662e-46
-3.63039e-45
1.65135e-45
1.74673e-44
-1.26385e-45
-8.14446e-44
-2.7455e-44
3.64063e-43
2.90601e-43
-1.53583e-42
-2.08956e-42
5.95347e-42
1.27241e-41
-2.00508e-41
-6.94026e-41
4.94756e-41
3.44695e-40
-3.08055e-42
-1.55514e-39
-1.04497e-39
6.24254e-39
9.1864e-39
-2.10487e-38
-5.70063e-38
4.88392e-38
2.92147e-37
2.51846e-38
-1.26837e-36
-1.21081e-36
4.49834e-36
9.39388e-36
-1.09472e-35
-5.13799e-35
-2.18602e-36
2.20943e-34
2.32826e-34
-7.14672e-34
-1.75541e-33
1.19128e-33
8.83235e-33
4.73215e-33
-3.23414e-32
-5.74615e-32
6.99183e-32
3.26965e-31
1.01601e-31
-1.25291e-30
-1.99957e-30
2.70508e-30
1.18688e-29
4.32628e-30
-4.36147e-29
-7.70863e-29
7.44987e-29
4.22264e-28
2.91116e-28
-1.31611e-27
-3.10847e-27
7.87989e-28
1.38409e-26
1.77785e-26
-2.87679e-26
-1.16571e-25
-6.77559e-26
3.60198e-25
8.53152e-25
-4.40032e-26
-3.47084e-24
-5.63657e-24
4.1955e-24
2.94447e-23
3.4523e-23
-5.50504e-23
-2.32682e-22
-2.02241e-22
5.38642e-22
1.77068e-21
1.19491e-21
-4.58925e-21
-1.32634e-20
-7.7466e-21
3.56961e-20
9.90163e-20
5.93925e-20
-2.56392e-19
-7.38148e-19
-5.31845e-19
1.67616e-18
5.44355e-18
5.10512e-18
-9.44305e-18
-3.88852e-17
-4.84686e-17
3.79606e-17
2.59835e-16
4.32707e-16
1.61539e-17
-1.52839e-15
-3.50348e-15
-2.47815e-15
6.84775e-15
2.46512e-14
3.31246e-14
-9.35939e-15
-1.38799e-13
-2.98297e-13
-2.32273e-13
4.7522e-13
1.96522e-12
3.19427e-12
1.16215e-12
-8.03159e-12
-2.41637e-11
-3.39681e-11
-5.04056e-12
1.01321e-10
2.7917e-10
3.89942e-10
9.70492e-11
-1.03175e-09
-3.06495e-09
-4.83542e-09
-3.06018e-09
7.36319e-09
2.9995e-08
5.88897e-08
6.72926e-08
4.6964e-10
-2.11307e-07
-5.97792e-07
-1.03698e-06
-1.10443e-06
3.09455e-08
3.48454e-06
1.00439e-05
1.88099e-05
2.50432e-05
1.76937e-05
-2.20177e-05
-0.000118421
-0.000291915
-0.00053784
-0.000789908
-0.000866712
-0.000404224
0.00121677
0.00493275
0.0120283
0.024113
0.0430272
0.0706665
0.108736
0.158461
0.220294
0.293689
0.376972
0.467377
0.561247
0.654391
0.742537
0.821832
0.889281
0.94306
0.982659
1.00883
1.02334
1.02865
1.0275
1.02252
1.01598
1.00952
1.00418
1.00044
0.998285
0.99745
0.997519
0.99808
0.998794
0.999439
0.999903
1.00016
1.00026
1.00024
1.00017
1.0001
1.00003
0.999992
0.999975
0.999974
0.99998
0.999989
0.999997
1
1
1
1
1
1
1
1
1
1
1
1
1
1
1
1
1
1
1
1
1
1
1
1
1
1
1
1
1
1
1
1
1
1
1
1
1
1
1
1
1
0.999997
0.99999
0.999981
0.999975
0.999982
1.00002
1.00012
1.00029
1.00054
1.00079
1.00087
1.0004
0.998783
0.995067
0.987972
0.975887
0.956973
0.929334
0.891264
0.841539
0.779706
0.706311
0.623028
0.532623
0.438753
0.345609
0.257463
0.178168
0.110719
0.0569397
0.0173407
-0.00882541
-0.0233354
-0.0286466
-0.0274966
-0.0225249
-0.0159753
-0.00951574
-0.00418313
-0.000436586
0.00171476
0.00255035
0.00248052
0.00191993
0.00120576
0.000561467
9.74915e-05
-0.000164709
-0.000259134
-0.000243257
-0.000174178
-9.51339e-05
-3.12582e-05
8.30846e-06
2.52285e-05
2.63804e-05
1.95038e-05
1.06713e-05
3.42678e-06
-9.54517e-07
-2.68959e-06
-2.66544e-06
-1.83201e-06
-8.83354e-07
-1.79107e-07
1.90961e-07
2.91888e-07
2.39954e-07
1.37503e-07
4.70365e-08
-7.68788e-09
-2.82842e-08
-2.71257e-08
-1.71002e-08
-6.85525e-09
-1.63793e-10
2.64077e-09
2.81794e-09
1.84969e-09
7.71569e-10
5.10501e-11
-2.54246e-10
-2.77485e-10
-1.79695e-10
-7.18417e-11
-1.99807e-12
2.56415e-11
2.60114e-11
1.57377e-11
5.51347e-12
-5.61362e-13
-2.59699e-12
-2.28206e-12
-1.21991e-12
-3.21729e-13
1.40514e-13
2.48487e-13
1.81663e-13
7.99975e-14
9.36843e-15
-1.96869e-14
-2.13369e-14
-1.2566e-14
-3.97645e-15
7.58829e-16
2.05115e-15
1.57509e-15
7.03806e-16
9.01095e-17
-1.57696e-16
-1.68675e-16
-9.48425e-17
-2.65626e-17
8.29441e-18
1.58736e-17
1.09164e-17
4.17e-18
1.78108e-20
-1.32665e-18
-1.12461e-18
-5.21758e-19
-7.97514e-20
9.81947e-20
1.0644e-19
5.71901e-20
1.39194e-20
-6.30126e-21
-9.42301e-21
-5.71838e-21
-1.74865e-21
3.28264e-22
7.91672e-22
5.33504e-22
1.87311e-22
-1.06177e-23
-6.39506e-23
-4.71247e-23
-1.80885e-23
-3.11737e-25
5.02852e-24
3.98095e-24
1.61587e-24
9.59127e-26
-3.89225e-25
-3.23882e-25
-1.35368e-25
-1.08396e-26
2.99203e-26
2.54914e-26
1.07134e-26
8.9994e-28
-2.29541e-27
-1.94526e-27
-8.03607e-28
-5.85796e-29
1.75747e-28
1.43956e-28
5.71274e-29
2.66005e-30
-1.33686e-29
-1.03143e-29
-3.83636e-30
-1.03808e-32
1.00276e-30
7.13197e-31
2.41624e-31
-1.55492e-32
-7.35246e-32
-4.73679e-32
-1.40837e-32
2.35748e-33
5.2244e-33
3.0028e-33
7.40575e-34
-2.50204e-34
-3.56878e-34
-1.80172e-34
-3.31819e-35
2.2334e-35
2.32593e-35
1.01118e-35
1.05427e-36
-1.77156e-36
-1.43528e-36
-5.21081e-37
3.0974e-39
1.2772e-37
8.3124e-38
2.38309e-38
-4.28104e-39
-8.45006e-39
-4.46574e-39
-8.92585e-40
4.75033e-40
5.14401e-40
2.18565e-40
1.9869e-41
-3.80345e-41
-2.87333e-41
-9.42442e-42
6.47786e-43
2.56278e-42
1.45964e-42
3.30646e-43
-1.24246e-43
-1.5182e-43
-6.61638e-44
-6.87207e-45
1.05397e-44
8.00478e-45
2.56602e-45
-2.02124e-46
-6.8847e-46
-3.73746e-46
-7.56557e-47
3.58453e-47
3.80348e-47
1.50701e-47
8.07537e-49
-2.7626e-48
-1.81822e-48
-4.8862e-49
9.8384e-50
1.61948e-49
7.45183e-50
9.55716e-51
-1.00907e-50
-7.89875e-51
-2.48959e-51
2.01051e-52
6.33988e-52
3.24602e-52
5.60563e-53
-3.46355e-53
-3.13572e-53
-1.0834e-53
2.2187e-55
2.32979e-54
1.27609e-54
2.50708e-55
-1.15768e-55
-1.15505e-55
-4.16228e-56
-2.27253e-58
8.16075e-57
4.58892e-57
9.33318e-58
-3.88526e-58
-3.98289e-58
-1.4329e-58
-8.73043e-61
2.74624e-59
1.519e-59
2.96341e-60
-1.32331e-60
-1.28944e-60
-4.43919e-61
7.2811e-63
8.87314e-62
4.63027e-62
7.97067e-63
-4.50677e-63
-3.90971e-63
-1.23208e-63
8.00331e-65
2.73089e-64
1.29341e-64
1.73255e-65
-1.49038e-65
-1.10252e-65
-3.01772e-66
4.54425e-67
7.90678e-67
3.27603e-67
2.54507e-68
-4.64842e-68
-2.86013e-68
-6.30384e-69
1.92751e-69
2.12253e-69
7.38645e-70
-3.48506e-72
-1.33694e-70
-6.72342e-71
-1.02972e-71
6.70845e-72
5.2006e-72
1.43429e-72
-2.03123e-73
-2.94157e-73
)
;

boundaryField
{
    sides
    {
        type            zeroGradient;
    }
    empty
    {
        type            empty;
    }
}


// ************************************************************************* //
