/*--------------------------------*- C++ -*----------------------------------*\
| =========                 |                                                 |
| \\      /  F ield         | OpenFOAM: The Open Source CFD Toolbox           |
|  \\    /   O peration     | Version:  2312                                  |
|   \\  /    A nd           | Website:  www.openfoam.com                      |
|    \\/     M anipulation  |                                                 |
\*---------------------------------------------------------------------------*/
FoamFile
{
    version     2.0;
    format      ascii;
    arch        "LSB;label=32;scalar=64";
    class       volScalarField;
    location    "1.6";
    object      T;
}
// * * * * * * * * * * * * * * * * * * * * * * * * * * * * * * * * * * * * * //

dimensions      [0 0 0 1 0 0 0];

internalField   nonuniform List<scalar> 
1000
(
0
0
0
0
0
0
0
0
0
0
0
0
0
0
0
0
0
0
0
0
0
0
0
0
0
0
0
0
0
0
0
0
0
0
0
0
0
0
0
0
0
0
0
0
0
0
0
0
0
0
0
0
0
0
0
0
0
0
0
0
0
0
0
0
0
0
0
0
0
0
0
0
0
0
0
0
0
0
0
0
0
0
0
0
0
0
0
0
0
0
0
0
0
0
0
0
0
0
0
0
0
0
0
0
0
0
0
0
0
0
0
0
0
0
0
0
0
0
0
0
0
0
0
0
0
0
0
0
0
0
0
0
0
0
0
0
0
0
0
0
0
0
0
0
0
0
0
0
0
0
0
0
0
0
0
0
0
0
0
0
0
0
0
0
0
0
0
0
0
0
0
0
0
0
0
0
0
0
0
0
0
0
0
0
0
0
0
0
0
0
0
0
0
0
0
0
0
0
0
0
0
0
0
0
0
0
0
0
0
0
0
0
0
0
0
0
0
0
0
0
0
0
0
0
0
0
0
0
0
0
0
0
0
0
0
0
0
0
0
0
0
0
0
0
0
0
0
0
0
0
0
0
0
0
0
0
0
0
0
0
0
0
0
0
0
0
0
0
0
0
0
0
0
0
0
0
0
0
0
0
0
0
0
0
0
0
0
0
0
0
0
0
0
0
0
0
0
0
0
0
0
0
0
0
0
0
0
0
0
0
0
0
0
0
0
0
0
0
0
0
0
0
0
0
0
0
0
0
0
0
0
0
0
0
0
0
0
0
0
0
0
0
0
0
0
0
0
0
0
0
0
0
0
0
0
0
0
0
0
0
0
0
0
0
0
0
0
0
0
0
0
0
0
0
0
0
0
0
0
0
0
0
0
0
0
0
0
0
0
0
0
0
0
0
0
0
0
0
0
0
0
0
0
0
0
0
0
0
0
0
0
0
0
0
0
0
0
0
0
0
0
0
0
0
0
0
0
0
0
0
0
0
0
0
0
0
0
0
0
0
0
0
0
0
0
0
0
0
0
0
2.04769e-46
2.10539e-44
1.08313e-42
3.71744e-41
9.57583e-40
1.97473e-38
3.396e-37
5.00945e-36
6.47039e-35
7.43411e-34
7.69276e-33
7.24193e-32
6.2539e-31
4.98883e-30
3.69808e-29
2.56039e-28
1.66311e-27
1.01748e-26
5.88331e-26
3.22519e-25
1.68086e-24
8.34909e-24
3.96154e-23
1.79931e-22
7.83764e-22
3.2799e-21
1.32077e-20
5.12544e-20
1.9194e-19
6.94529e-19
2.4312e-18
8.24218e-18
2.70899e-17
8.64057e-17
2.67699e-16
8.06307e-16
2.36296e-15
6.74302e-15
1.87505e-14
5.08431e-14
1.34525e-13
3.47532e-13
8.77145e-13
2.16412e-12
5.22227e-12
1.2332e-11
2.85116e-11
6.45699e-11
1.43304e-10
3.11815e-10
6.65475e-10
1.3936e-09
2.86473e-09
5.78278e-09
1.14671e-08
2.23452e-08
4.28036e-08
8.06271e-08
1.49391e-07
2.72361e-07
4.88733e-07
8.63432e-07
1.50224e-06
2.57465e-06
4.34794e-06
7.23679e-06
1.18745e-05
1.9213e-05
3.06612e-05
4.82725e-05
7.49936e-05
0.00011499
0.00017406
0.000260156
0.000384024
0.00055996
0.000806713
0.0011485
0.00161612
0.00224819
0.00309236
0.00420655
0.00566007
0.00753451
0.00992443
0.0129375
0.0166943
0.0213273
0.0269793
0.0338009
0.0419476
0.0515755
0.0628368
0.0758749
0.0908183
0.107775
0.126827
0.148026
0.171386
0.196882
0.224448
0.253974
0.285309
0.318258
0.352592
0.388051
0.424345
0.46117
0.498209
0.535143
0.571658
0.607456
0.642258
0.67581
0.707894
0.738324
0.766953
0.793674
0.818416
0.841148
0.861869
0.880614
0.897441
0.912432
0.925687
0.937321
0.947457
0.956223
0.96375
0.970165
0.975595
0.980159
0.983967
0.987123
0.98972
0.991843
0.993566
0.994956
0.996069
0.996955
0.997655
0.998205
0.998634
0.998967
0.999223
0.999419
0.999568
0.999681
0.999765
0.999828
0.999875
0.99991
0.999935
0.999954
0.999967
0.999977
0.999984
0.999989
0.999992
0.999994
0.999996
0.999997
0.999997
0.999996
0.999995
0.999992
0.999988
0.999981
0.999969
0.999952
0.999925
0.999885
0.999826
0.99974
0.999616
0.99944
0.999193
0.998852
0.998384
0.997752
0.996908
0.995793
0.99434
0.992465
0.990076
0.987062
0.983306
0.978673
0.973021
0.966199
0.958052
0.948425
0.937163
0.924125
0.909182
0.892225
0.873173
0.851974
0.828614
0.803118
0.775552
0.746026
0.714691
0.681742
0.647408
0.611949
0.575655
0.53883
0.501791
0.464857
0.428342
0.392544
0.357742
0.32419
0.292106
0.261676
0.233047
0.206326
0.181584
0.158852
0.138131
0.119386
0.102559
0.0875684
0.0743127
0.0626786
0.0525428
0.0437768
0.0362504
0.0298346
0.0244045
0.0198412
0.016033
0.0128772
0.0102799
0.008157
0.00643354
0.00504379
0.00393062
0.00304489
0.00234476
0.00179495
0.00136597
0.00103343
0.000777286
0.000581234
0.000432119
0.000319412
0.00023475
0.000171545
0.000124648
9.006e-05
6.47048e-05
4.62285e-05
3.28446e-05
2.32067e-05
1.63068e-05
1.13957e-05
7.92043e-06
5.4752e-06
3.76451e-06
2.57446e-06
1.75125e-06
1.18496e-06
7.97566e-07
5.34012e-07
3.55686e-07
2.35683e-07
1.55363e-07
1.01891e-07
6.64826e-08
4.31591e-08
2.78769e-08
1.79157e-08
1.14565e-08
7.28979e-09
4.61562e-09
2.90811e-09
1.82335e-09
1.13767e-09
7.06423e-10
4.3654e-10
2.68476e-10
1.64332e-10
1.00112e-10
6.0702e-11
3.66344e-11
2.20066e-11
1.31585e-11
7.83179e-12
4.64008e-12
2.7366e-12
1.60667e-12
9.39047e-13
5.46385e-13
3.165e-13
1.82524e-13
1.04797e-13
5.99065e-14
3.40957e-14
1.93214e-14
1.09018e-14
6.1248e-15
3.42631e-15
1.90859e-15
1.05867e-15
5.84758e-16
3.21642e-16
1.7618e-16
9.61034e-17
5.22069e-17
2.82444e-17
1.52181e-17
8.16628e-18
4.36445e-18
2.32319e-18
1.23169e-18
6.50405e-19
3.42093e-19
1.79221e-19
9.3525e-20
4.86147e-20
2.5172e-20
1.29833e-20
6.67083e-21
3.41435e-21
1.74092e-21
8.84299e-22
4.47483e-22
2.2559e-22
1.13302e-22
5.66937e-23
2.82632e-23
1.40379e-23
6.94687e-24
3.4252e-24
1.68267e-24
8.23645e-25
4.0171e-25
1.95221e-25
9.45334e-26
4.56141e-26
2.19318e-26
1.05079e-26
5.01689e-27
2.3869e-27
1.13167e-27
5.34693e-28
2.51762e-28
1.18136e-28
5.5245e-29
2.57468e-29
1.19587e-29
5.53574e-30
2.55394e-30
1.17434e-30
5.3818e-31
2.45824e-31
1.11914e-31
5.07831e-32
2.29684e-32
1.03545e-32
4.65281e-33
2.08401e-33
9.30434e-34
4.14076e-34
1.83691e-34
8.123e-35
3.58072e-35
1.57346e-35
6.89253e-36
3.00985e-36
1.31026e-36
5.68624e-37
2.4601e-37
1.06107e-37
4.56253e-38
1.95589e-38
8.35916e-39
3.56179e-39
1.51309e-39
6.40854e-40
2.70617e-40
1.13935e-40
4.78272e-41
2.00174e-41
8.35342e-42
3.47575e-42
1.442e-42
5.96512e-43
2.46046e-43
1.01195e-43
4.1501e-44
1.69712e-44
6.92036e-45
2.81392e-45
1.14095e-45
4.61315e-46
1.85998e-46
7.47836e-47
2.99843e-47
1.19888e-47
4.78034e-48
1.90083e-48
7.53769e-49
2.98089e-49
1.17563e-49
4.62398e-50
1.81379e-50
7.09562e-51
2.76839e-51
1.07722e-51
4.18045e-52
1.61804e-52
6.24611e-53
2.40483e-53
9.23463e-54
3.53687e-54
1.3511e-54
5.14786e-55
1.95634e-55
7.41551e-56
2.80364e-56
1.05729e-56
3.97701e-57
1.49216e-57
5.58439e-58
2.08468e-58
7.76269e-59
2.88334e-59
1.06831e-59
3.94835e-60
1.45566e-60
5.35339e-61
1.96395e-61
7.18729e-62
2.62385e-62
9.55552e-63
3.47148e-63
1.25813e-63
4.54871e-64
1.64062e-64
5.90318e-65
2.11899e-65
7.58818e-66
2.71092e-66
9.66207e-67
3.43559e-67
1.21874e-67
4.31328e-68
1.52297e-68
5.36494e-69
1.88553e-69
6.61148e-70
2.31295e-70
8.07303e-71
2.81135e-71
9.76796e-72
3.38616e-72
1.17119e-72
4.04173e-73
1.39166e-73
4.78104e-74
1.63887e-74
5.60528e-75
1.91288e-75
6.51353e-76
2.21303e-76
7.50248e-77
2.53787e-77
8.56617e-78
2.88508e-78
9.69586e-79
3.25144e-79
1.088e-79
3.63284e-80
1.21042e-80
4.02434e-81
1.33515e-81
4.42022e-82
1.46029e-82
4.81411e-83
1.58373e-83
5.19917e-84
1.70326e-84
5.56828e-85
1.8166e-85
5.91425e-86
1.92151e-86
6.23004e-87
2.0158e-87
6.50904e-88
2.09749e-88
6.74527e-89
2.1648e-89
6.93361e-90
2.21628e-90
7.06999e-91
2.25083e-91
7.15152e-92
2.26772e-92
7.1766e-93
2.26667e-93
7.14496e-94
2.2478e-94
7.05769e-95
2.21166e-95
6.91715e-96
2.15919e-96
6.72688e-97
2.09168e-97
6.49144e-98
2.01072e-98
6.21626e-99
1.91812e-99
5.90741e-100
1.8159e-100
5.5714e-101
1.70615e-101
5.21495e-102
1.59099e-102
4.84477e-103
1.47254e-103
4.46736e-104
1.35279e-104
4.08887e-105
1.2336e-105
3.7149e-106
1.11666e-106
3.35043e-107
1.00343e-107
2.99974e-108
8.95139e-109
2.66631e-109
7.92771e-110
2.35289e-110
6.97071e-111
2.06146e-111
6.08549e-112
1.79326e-112
5.27497e-113
1.54892e-113
4.54013e-114
1.32845e-114
3.88022e-115
1.13138e-115
3.29308e-116
9.56838e-117
2.77537e-117
8.03618e-118
)
;

boundaryField
{
    sides
    {
        type            zeroGradient;
    }
    empty
    {
        type            empty;
    }
}


// ************************************************************************* //
