/*--------------------------------*- C++ -*----------------------------------*\
| =========                 |                                                 |
| \\      /  F ield         | OpenFOAM: The Open Source CFD Toolbox           |
|  \\    /   O peration     | Version:  2312                                  |
|   \\  /    A nd           | Website:  www.openfoam.com                      |
|    \\/     M anipulation  |                                                 |
\*---------------------------------------------------------------------------*/
FoamFile
{
    version     2.0;
    format      ascii;
    arch        "LSB;label=32;scalar=64";
    class       volScalarField;
    location    "0.6";
    object      T;
}
// * * * * * * * * * * * * * * * * * * * * * * * * * * * * * * * * * * * * * //

dimensions      [0 0 0 1 0 0 0];

internalField   nonuniform List<scalar> 
1000
(
0
0
0
0
0
0
0
0
0
0
0
0
0
0
0
0
0
0
0
0
0
0
0
0
0
0
0
0
0
0
0
0
0
0
0
0
0
0
0
0
0
0
0
0
0
0
0
0
0
0
0
0
0
0
0
0
0
0
0
0
0
0
0
0
0
0
0
0
0
0
0
0
0
0
0
0
0
0
0
0
0
0
0
0
0
0
0
0
0
0
0
0
0
0
0
0
0
0
0
0
0
0
0
0
0
0
0
0
0
0
0
0
0
0
0
0
0
0
0
0
0
0
0
0
0
0
0
0
0
0
0
0
0
0
0
0
0
0
0
0
0
0
0
0
0
0
0
0
0
0
0
0
0
0
0
0
0
0
0
0
0
0
0
0
0
0
0
0
0
0
0
0
0
0
0
0
1.23516e-322
-6.19064e-321
3.06247e-319
-1.50579e-317
7.35384e-316
-3.56716e-314
1.71865e-312
-8.22439e-311
3.90907e-309
-1.8454e-307
8.65277e-306
-4.02961e-304
1.86386e-302
-8.56249e-301
3.90682e-299
-1.77043e-297
7.96826e-296
-3.56185e-294
1.58129e-292
-6.97213e-291
3.05308e-289
-1.32777e-287
5.73481e-286
-2.45992e-284
1.04792e-282
-4.43334e-281
1.86265e-279
-7.77181e-278
3.22034e-276
-1.32515e-274
5.41511e-273
-2.19748e-271
8.85553e-270
-3.54381e-268
1.40828e-266
-5.55731e-265
2.17768e-263
-8.47368e-262
3.27411e-260
-1.25619e-258
4.78573e-257
-1.81039e-255
6.80014e-254
-2.5362e-252
9.39206e-251
-3.4534e-249
1.26077e-247
-4.57002e-246
1.64472e-244
-5.87696e-243
2.08493e-241
-7.3435e-240
2.56792e-238
-8.91497e-237
3.07265e-235
-1.05136e-233
3.57137e-232
-1.20435e-230
4.03176e-229
-1.33986e-227
4.42016e-226
-1.44752e-224
4.70552e-223
-1.51839e-221
4.86346e-220
-1.54626e-218
4.87967e-217
-1.52848e-215
4.75206e-214
-1.46639e-212
4.49112e-211
-1.36518e-209
4.11854e-208
-1.23313e-206
3.66419e-205
-1.08054e-203
3.1622e-202
-9.18361e-201
2.6467e-199
-7.56925e-198
2.14807e-196
-6.04898e-195
1.69022e-193
-4.68623e-192
1.28917e-190
-3.51881e-189
9.52943e-188
-2.56044e-186
6.82539e-185
-1.80507e-183
4.73593e-182
-1.23267e-180
3.1828e-179
-8.15228e-178
2.07132e-176
-5.22033e-175
1.30503e-173
-3.23597e-172
7.95856e-171
-1.94133e-169
4.6966e-168
-1.12688e-166
2.68141e-165
-6.32748e-164
1.48069e-162
-3.43598e-161
7.90633e-160
-1.80394e-158
4.08111e-157
-9.15436e-156
2.0359e-154
-4.48896e-153
9.81255e-152
-2.12642e-150
4.56804e-149
-9.72767e-148
2.05337e-146
-4.29626e-145
8.90961e-144
-1.83128e-142
3.73045e-141
-7.53112e-140
1.50671e-138
-2.98713e-137
5.86831e-136
-1.14232e-134
2.20321e-133
-4.21015e-132
7.97065e-131
-1.49493e-129
2.77755e-128
-5.11198e-127
9.31932e-126
-1.68276e-124
3.00942e-123
-5.33014e-122
9.34908e-121
-1.62386e-119
2.79287e-118
-4.7561e-117
8.01909e-116
-1.33858e-114
2.212e-113
-3.6184e-112
5.85884e-111
-9.38951e-110
1.48929e-108
-2.33773e-107
3.63125e-106
-5.58126e-105
8.48775e-104
-1.27704e-102
1.9008e-101
-2.79867e-100
4.07586e-99
-5.87088e-98
8.36307e-97
-1.17807e-95
1.64091e-94
-2.25977e-93
3.0766e-92
-4.14063e-91
5.50819e-90
-7.24196e-89
9.40946e-88
-1.20807e-86
1.53246e-85
-1.92049e-84
2.37746e-83
-2.90699e-82
3.51037e-81
-4.18591e-80
4.92835e-79
-5.7284e-78
6.57248e-77
-7.44274e-76
8.31733e-75
-9.17111e-74
9.97665e-73
-1.07055e-71
1.13298e-70
-1.1824e-69
1.21664e-68
-1.23407e-67
1.23374e-66
-1.21544e-65
1.17976e-64
-1.12802e-63
1.06223e-62
-9.84933e-62
8.99064e-61
-8.07743e-60
7.14093e-59
-6.21055e-58
5.31241e-57
-4.46813e-56
3.69415e-55
-3.00147e-54
2.39583e-53
-1.87822e-52
1.44565e-51
-1.09209e-50
8.09421e-50
-5.88366e-49
4.19281e-48
-2.92794e-47
2.00274e-46
-1.34118e-45
8.78881e-45
-5.63272e-44
3.52859e-43
-2.15928e-42
1.28989e-41
-7.51661e-41
4.26945e-40
-2.36175e-39
1.27116e-38
-6.65007e-38
3.37763e-37
-1.66342e-36
7.93181e-36
-3.65602e-35
1.62589e-34
-6.96086e-34
2.86148e-33
-1.12591e-32
4.22384e-32
-1.50329e-31
5.04253e-31
-1.57961e-30
4.55847e-30
-1.18499e-29
2.6582e-29
-4.61972e-29
3.62873e-29
1.40962e-28
-8.50922e-28
2.69732e-27
-5.65904e-27
5.4625e-27
1.47019e-26
-9.04244e-26
2.40857e-25
-2.95802e-25
-4.72023e-25
3.41264e-24
-8.18724e-24
4.88109e-24
3.48502e-23
-1.31305e-22
1.61144e-22
3.445e-22
-1.84897e-21
2.59291e-21
4.58656e-21
-2.55039e-20
2.91967e-20
8.52111e-20
-3.33705e-19
1.42465e-19
1.61753e-18
-3.47738e-18
-3.51664e-18
2.41807e-17
-1.35668e-17
-1.13696e-16
2.03488e-16
3.91996e-16
-1.44708e-15
-8.29049e-16
8.15242e-15
-1.00569e-15
-4.12263e-14
2.3697e-14
1.99584e-13
-1.69332e-13
-9.63805e-13
8.90634e-13
4.73638e-12
-3.67471e-12
-2.35635e-11
9.79199e-12
1.15165e-10
1.37468e-11
-5.24491e-10
-4.33042e-10
2.03549e-09
3.76543e-09
-5.351e-09
-2.23777e-08
-2.86594e-09
9.30418e-08
1.38386e-07
-1.93166e-07
-8.75897e-07
-6.27855e-07
2.50167e-06
7.06291e-06
3.42242e-06
-2.10516e-05
-5.70498e-05
-4.25961e-05
0.000120467
0.000441496
0.000627649
-2.73848e-05
-0.00232201
-0.00614854
-0.00899182
-0.00468547
0.0164802
0.0655438
0.150843
0.273695
0.425927
0.590842
0.747635
0.877554
0.969215
1.02097
1.03967
1.03689
1.02448
1.01132
1.00203
0.997557
0.996702
0.997638
0.998923
0.999831
1.00022
1.00026
1.00016
1.00005
0.999994
0.999978
0.999984
0.999993
1
1
1
1
1
1
1
1
1
1
1
1
1
1
1
1
1
1
1
1
1
1
1
1
1
1
1
1
1
1
1
1
1
1
1
1
1
1
1
1
1
1
1
1
1
1
1
1
1
1
1
1
1
1
1
1
1
1
0.999997
0.999993
0.999997
1.00002
1.00006
1.00004
0.99988
0.999559
0.999372
1.00003
1.00232
1.00615
1.00899
1.00469
0.98352
0.934456
0.849157
0.726305
0.574073
0.409158
0.252365
0.122446
0.030785
-0.020969
-0.0396712
-0.0368904
-0.0244828
-0.0113185
-0.00202657
0.00244264
0.00329797
0.00236228
0.00107704
0.000169089
-0.000224274
-0.000263492
-0.000159849
-5.29559e-05
6.21586e-06
2.20073e-05
1.62736e-05
6.52937e-06
3.63619e-07
-1.61983e-06
-1.35113e-06
-5.68092e-07
-5.07306e-08
1.16499e-07
9.74646e-08
3.87685e-08
2.0962e-09
-8.33315e-09
-6.17307e-09
-2.09483e-09
1.00699e-10
5.60238e-10
3.3574e-10
8.40743e-11
-2.32334e-11
-3.29833e-11
-1.49692e-11
-1.87246e-12
2.07223e-12
1.60581e-12
5.00612e-13
-4.11937e-14
-1.23925e-13
-6.10117e-14
-9.41262e-15
6.65123e-15
5.38382e-15
1.62078e-15
-1.45314e-16
-3.73427e-16
-1.66587e-16
-1.82855e-17
2.02257e-17
1.33265e-17
3.11239e-18
-7.48004e-19
-8.88877e-19
-3.02983e-19
2.22459e-21
5.04739e-20
2.32464e-20
2.71785e-21
-2.42073e-21
-1.5254e-21
-3.13775e-22
9.28996e-23
8.85804e-23
2.49829e-23
-2.2457e-24
-4.63071e-24
-1.65516e-24
-3.7014e-26
2.19797e-25
9.69175e-26
9.46359e-27
-9.49628e-27
-5.1611e-27
-7.99003e-28
3.72075e-28
2.54158e-28
5.13252e-29
-1.30467e-29
-1.17037e-29
-2.84456e-30
3.95796e-31
5.08138e-31
1.42414e-31
-9.41509e-33
-2.09378e-32
-6.58934e-33
1.0281e-34
8.23363e-34
2.85571e-34
6.01658e-36
-3.10535e-35
-1.16946e-35
-5.65117e-37
1.12833e-36
4.55347e-37
3.12467e-38
-3.96598e-38
-1.69336e-38
-1.41275e-39
1.35345e-39
6.03508e-40
5.65257e-41
-4.49864e-41
-2.06658e-41
-2.06507e-42
1.45995e-42
6.81206e-43
6.99224e-44
-4.63391e-44
-2.16445e-44
-2.21042e-45
1.43969e-45
6.63505e-46
6.54194e-47
-4.37832e-47
-1.96325e-47
-1.81091e-48
1.3024e-48
5.6078e-49
4.66448e-50
-3.78466e-50
-1.54599e-50
-1.10497e-51
1.07264e-51
4.11142e-52
2.348e-53
-2.95966e-53
-1.05387e-53
-4.21192e-55
7.9361e-55
2.60063e-55
5.14295e-57
-2.06438e-56
-6.16861e-57
2.43385e-59
5.20086e-58
1.40345e-58
-4.49183e-60
-1.26707e-59
-3.05401e-60
2.0075e-61
2.98086e-61
6.33118e-62
-6.79639e-63
-6.76212e-63
-1.24313e-63
1.99796e-64
1.47707e-64
2.29103e-65
-5.34062e-66
-3.10183e-66
-3.90224e-67
1.32569e-67
6.25098e-68
5.96059e-69
-3.09047e-69
-1.20622e-69
-7.59049e-71
6.81052e-71
2.22231e-71
6.06652e-73
-1.42433e-72
-3.89363e-73
5.23362e-75
2.83346e-74
6.4499e-75
-4.02972e-76
-5.36776e-76
-1.00103e-76
1.25772e-77
9.68557e-78
1.43296e-78
-3.08144e-79
-1.66344e-79
-1.83475e-80
6.62036e-81
2.71448e-81
1.94896e-82
-1.29745e-82
-4.19583e-83
-1.27235e-84
2.36184e-84
6.11179e-85
-1.05194e-86
-4.0308e-86
-8.3174e-87
6.32814e-88
6.48e-88
1.04134e-88
-1.63401e-89
-9.83154e-90
-1.16309e-90
3.32584e-91
1.40725e-91
1.07371e-92
-5.93541e-93
-1.89519e-93
-6.01129e-95
9.64743e-95
2.38748e-95
-4.65463e-97
-1.45288e-96
-2.78258e-97
2.34793e-98
2.04393e-98
2.93642e-99
-5.23237e-100
-2.69493e-100
-2.67319e-101
9.20676e-102
3.32905e-102
1.80999e-103
-1.4194e-103
-3.83729e-104
-1.94515e-106
1.98976e-105
4.08899e-106
-2.24942e-107
-2.57804e-107
-3.95168e-108
5.47831e-109
3.10948e-109
3.31817e-110
-9.30003e-111
-3.49721e-111
-2.13569e-112
1.33715e-112
3.65646e-113
4.30035e-115
-1.72304e-114
-3.52171e-115
1.68285e-116
2.03615e-116
3.06283e-117
-4.00322e-118
-2.22849e-118
-2.29612e-119
6.27328e-120
2.26505e-120
1.28673e-121
-8.2186e-122
-2.13147e-122
-1.40877e-124
9.59664e-124
1.83789e-124
-1.01107e-125
-1.02415e-125
-1.41797e-126
2.03711e-127
1.0094e-127
9.23049e-129
-2.82659e-129
-9.21024e-130
-4.12816e-131
3.30849e-131
7.74672e-132
-5.52848e-134
-3.46087e-133
-5.92666e-134
4.35524e-135
3.31012e-135
3.99617e-136
-7.0019e-137
-2.92084e-137
-2.18078e-138
8.41704e-139
2.37982e-139
6.51816e-141
-8.70616e-141
-1.77822e-141
4.91711e-143
8.1055e-143
1.19603e-143
-1.22448e-144
-6.9169e-145
-6.9172e-146
1.58235e-146
5.4445e-147
2.98115e-148
-1.64161e-148
-3.94609e-149
-2.38895e-151
1.49605e-150
2.60524e-151
-1.40939e-152
-1.23716e-152
-1.52467e-153
2.17762e-154
9.40529e-155
7.35933e-156
-2.32322e-156
-6.59367e-157
-2.18757e-158
2.09183e-158
4.24104e-159
-7.71124e-161
-1.68327e-160
-2.46183e-161
2.12562e-162
1.23798e-162
1.23784e-163
-2.45224e-164
-8.39185e-165
-4.76358e-166
2.21673e-166
5.2416e-167
5.76574e-169
-1.74816e-168
-2.98918e-169
1.33118e-170
1.24832e-170
1.51914e-171
-1.89178e-172
-8.19438e-173
-6.4593e-174
1.7699e-174
4.96708e-175
1.81584e-176
-1.38477e-176
-2.77039e-177
2.97278e-179
9.66123e-179
1.40232e-179
-1.00848e-180
-6.16248e-181
-6.22429e-182
1.04652e-182
3.62978e-183
2.1973e-184
-8.31002e-185
-1.97701e-185
-3.6891e-187
5.72565e-187
9.89251e-188
-3.02615e-189
-3.57004e-189
-4.46395e-190
4.38394e-191
2.04991e-191
1.73454e-192
-3.71136e-193
-1.091e-193
-5.01432e-195
2.57582e-195
5.37732e-196
2.36373e-198
-1.58616e-197
-2.43292e-198
1.12971e-199
8.9305e-200
9.88053e-201
-1.18049e-201
-4.65711e-202
-3.40349e-203
8.61376e-204
2.25917e-204
8.16124e-206
-5.34051e-206
-1.0173e-206
4.65357e-209
2.97918e-208
4.2106e-209
-2.33331e-210
-1.53091e-210
-1.5643e-211
2.03372e-212
7.3228e-213
4.91254e-214
-1.32588e-214
-3.27139e-215
-1.0512e-216
7.48132e-217
1.36187e-217
-8.92551e-220
-3.83085e-219
-5.23532e-220
2.86639e-221
1.81697e-221
1.81927e-222
-2.265e-223
-8.05837e-224
-5.42549e-225
1.36046e-225
3.35335e-226
1.16984e-227
-7.11473e-228
-1.30763e-228
5.70147e-232
3.39007e-230
4.74639e-231
-2.04854e-232
-1.50169e-232
-1.57896e-233
1.60929e-234
6.24509e-235
4.647e-236
-9.2324e-237
-2.44886e-237
-1.09662e-238
4.57403e-239
)
;

boundaryField
{
    sides
    {
        type            zeroGradient;
    }
    empty
    {
        type            empty;
    }
}


// ************************************************************************* //
