/*--------------------------------*- C++ -*----------------------------------*\
| =========                 |                                                 |
| \\      /  F ield         | OpenFOAM: The Open Source CFD Toolbox           |
|  \\    /   O peration     | Version:  2312                                  |
|   \\  /    A nd           | Website:  www.openfoam.com                      |
|    \\/     M anipulation  |                                                 |
\*---------------------------------------------------------------------------*/
FoamFile
{
    version     2.0;
    format      ascii;
    arch        "LSB;label=32;scalar=64";
    class       volScalarField;
    location    "2.2";
    object      T;
}
// * * * * * * * * * * * * * * * * * * * * * * * * * * * * * * * * * * * * * //

dimensions      [0 0 0 1 0 0 0];

internalField   nonuniform List<scalar> 
1000
(
2.89117e-67
-6.79935e-67
1.83626e-66
-4.94562e-66
1.32875e-65
-3.5632e-65
9.5362e-65
-2.54713e-64
6.78989e-64
-1.80638e-63
4.79608e-63
-1.27084e-62
3.36064e-62
-8.86901e-62
2.33586e-61
-6.13954e-61
1.61042e-60
-4.21551e-60
1.10121e-59
-2.87073e-59
7.46821e-59
-1.93882e-58
5.0229e-58
-1.29856e-57
3.3501e-57
-8.62459e-57
2.21565e-56
-5.67991e-56
1.45297e-55
-3.7089e-55
9.44714e-55
-2.40116e-54
6.0898e-54
-1.54114e-53
3.89168e-53
-9.80579e-53
2.46533e-52
-6.18461e-52
1.54807e-51
-3.86637e-51
9.63495e-51
-2.39566e-50
5.94329e-50
-1.47113e-49
3.63321e-49
-8.95254e-49
2.20096e-48
-5.39863e-48
1.32117e-47
-3.22576e-47
7.85777e-47
-1.90967e-46
4.63022e-46
-1.12003e-45
2.70293e-45
-6.50749e-45
1.56301e-44
-3.74522e-44
8.95268e-44
-2.13494e-43
5.07892e-43
-1.20533e-42
2.85353e-42
-6.73906e-42
1.58764e-41
-3.73106e-41
8.7466e-41
-2.04535e-40
4.77102e-40
-1.11011e-39
2.57649e-39
-5.96474e-39
1.37737e-38
-3.17251e-38
7.28857e-38
-1.67018e-37
3.81733e-37
-8.70219e-37
1.97862e-36
-4.48703e-36
1.01487e-35
-2.28935e-35
5.15061e-35
-1.1557e-34
2.58621e-34
-5.77181e-34
1.28464e-33
-2.85148e-33
6.31201e-33
-1.39338e-32
3.06742e-32
-6.73392e-32
1.47418e-31
-3.2182e-31
7.00569e-31
-1.52075e-30
3.29174e-30
-7.10475e-30
1.52905e-29
-3.28123e-29
7.02082e-29
-1.49785e-28
3.18618e-28
-6.75753e-28
1.42894e-27
-3.01259e-27
6.33229e-27
-1.32699e-26
2.77239e-26
-5.77449e-26
1.19905e-25
-2.48208e-25
5.12205e-25
-1.05369e-24
2.1608e-24
-4.41714e-24
9.00086e-24
-1.82825e-23
3.70158e-23
-7.47015e-23
1.50264e-22
-3.01268e-22
6.02028e-22
-1.19905e-21
2.38013e-21
-4.70874e-21
9.28399e-21
-1.82424e-20
3.57223e-20
-6.97099e-20
1.35562e-19
-2.62699e-19
5.07278e-19
-9.76092e-19
1.87147e-18
-3.57526e-18
6.80546e-18
-1.29068e-17
2.43884e-17
-4.5913e-17
8.61125e-17
-1.60902e-16
2.99508e-16
-5.55388e-16
1.02592e-15
-1.88774e-15
3.45996e-15
-6.31668e-15
1.14863e-14
-2.08032e-14
3.75253e-14
-6.74138e-14
1.20611e-13
-2.14896e-13
3.81287e-13
-6.73663e-13
1.18518e-12
-2.07617e-12
3.62126e-12
-6.28862e-12
1.08726e-11
-1.87144e-11
3.20675e-11
-5.46989e-11
9.2875e-11
-1.56966e-10
2.64045e-10
-4.42074e-10
7.36603e-10
-1.22144e-09
2.01553e-09
-3.30947e-09
5.40702e-09
-8.78943e-09
1.42148e-08
-2.28705e-08
3.66043e-08
-5.82755e-08
9.22799e-08
-1.45333e-07
2.2763e-07
-3.54541e-07
5.4909e-07
-8.45527e-07
1.29444e-06
-1.97001e-06
2.98023e-06
-4.48111e-06
6.69629e-06
-9.9438e-06
1.46722e-05
-2.15086e-05
3.13227e-05
-4.53086e-05
6.50913e-05
-9.28602e-05
0.000131535
-0.000184966
0.000258178
-0.000357642
0.000491596
-0.000670376
0.000906763
-0.00121631
0.00161762
-0.00213247
0.00278584
-0.00360557
0.00462176
-0.00586562
0.00736782
-0.00915614
0.0112524
-0.0136688
0.0164034
-0.0194351
0.0227192
-0.0261822
0.0297182
-0.0331872
0.0364152
-0.0391986
0.0413119
-0.0425211
0.0426007
-0.0413559
0.0386476
-0.0344186
0.0287175
-0.0217177
0.0137272
-0.00518477
-0.00335927
0.0112804
-0.0179344
0.022725
-0.0251799
0.0250241
-0.0222406
0.0171066
-0.010194
0.00232744
0.0055014
-0.0122571
0.0170078
-0.0190752
0.0181616
-0.0144271
0.00849586
-0.00138088
-0.00567179
0.0113972
-0.0147494
0.0151168
-0.0124671
0.00738146
-0.000959958
-0.00539534
0.0102808
-0.0126125
0.0118923
-0.00834796
0.00290072
0.00304573
-0.00795359
0.0105534
-0.0101936
0.00703594
-0.00202818
-0.00335132
0.00751725
-0.00925065
0.00807839
-0.0044334
-0.000468617
0.00501142
-0.00770611
0.00769323
-0.00504439
0.000747599
0.00363348
-0.00651793
0.00688704
-0.00466849
0.000770432
0.00326204
-0.00584792
0.00599865
-0.00371978
1.26199e-05
0.00353918
-0.00543679
0.0049084
-0.00224553
-0.00132527
0.00419165
-0.00508818
0.00367983
-0.000719256
-0.00230782
0.00389227
-0.0032297
0.0006086
0.00274346
-0.00529048
0.00598356
-0.00481261
0.00281971
-0.0015556
0.00226007
-0.00520576
0.00956856
-0.0139049
0.0169763
-0.0184547
0.019099
-0.0202881
0.0231735
-0.0279481
0.0336723
-0.0387695
0.0418976
-0.0426625
0.0417277
-0.0402531
0.0390234
-0.0378429
0.0356085
-0.0310352
0.0235686
-0.0138794
0.00360132
0.00551925
-0.0124917
0.0173832
-0.0208711
0.0234014
-0.0246035
0.0234322
-0.0189705
0.0113189
-0.00189793
-0.00710048
0.0137595
-0.0172592
0.0179278
-0.0165688
0.0136665
-0.00914334
0.00286183
0.00459187
-0.0115882
0.0160059
-0.0163519
0.0126434
-0.00638884
-0.000310133
0.00583822
-0.00954206
0.0113825
-0.0112751
0.00887078
-0.00405306
-0.00232898
0.00831027
-0.0116172
0.010954
-0.00679385
0.00104693
0.00411537
-0.00734182
0.00833755
-0.00733908
0.00458439
-0.000393168
-0.00431831
0.00786862
-0.00851842
0.00567258
-0.000543463
-0.00443193
0.00706319
-0.00661859
0.00389645
-0.000330437
-0.00290985
0.00510549
-0.00567839
0.00415136
-0.000689693
-0.00338532
0.00597924
-0.00554453
0.00229449
0.00184297
-0.00458315
0.00478786
-0.00288874
0.000138489
0.00233409
-0.0038103
0.00377462
-0.00197504
-0.00105437
0.00376163
-0.00437646
0.00232953
0.00107433
-0.00356931
0.00368593
-0.00173005
-0.000793409
0.00249654
-0.00283008
0.00187976
-1.35676e-05
-0.00203294
0.00308906
-0.00220964
-0.000283384
0.00265564
-0.00308278
0.00129191
0.00120294
-0.00253465
0.00204295
-0.000454293
-0.00110758
0.00192916
-0.00171557
0.000457749
0.00128677
-0.00230146
0.00157511
0.000502898
-0.00218558
0.00199037
-0.000199176
-0.00150515
0.00179458
-0.000785631
-0.000515318
0.00130457
-0.00128981
0.000449575
0.000855804
-0.00166792
0.00107714
0.000597151
-0.00177284
0.00123871
0.000420101
-0.0014945
0.00109224
0.000106385
-0.000945041
0.000976149
-0.000398277
-0.000462255
0.00110499
-0.000854676
-0.000334082
0.00133694
-0.000950602
-0.000481571
0.00132487
-0.000696237
-0.000514625
0.000974661
-0.000492557
-0.000220448
0.000651815
-0.000650033
9.41744e-05
0.000735958
-0.000919044
-7.61551e-06
0.00103127
-0.000805653
-0.000391173
0.000992292
-0.000374114
-0.000475006
0.000615076
-0.000227254
-0.000201346
0.00052064
-0.00046019
-0.000217544
0.000831676
-0.000388479
-0.000670638
0.000821056
0.000155779
-0.000791932
0.000310763
0.000366617
-0.000414471
0.000141342
0.00011871
-0.000415424
0.00036068
0.000332457
-0.000730028
-1.44386e-06
0.000801302
-0.000340562
-0.000576102
0.000482044
0.000207636
-0.000344247
0.000108667
-2.57332e-06
-0.000241402
0.000399013
0.000174019
-0.000684007
1.02431e-05
0.000762295
-0.000185876
-0.000627593
0.000249128
0.000344371
-0.000160027
-8.21428e-06
-4.90971e-05
-0.000292429
0.000294109
0.000498322
-0.00047529
-0.000582394
0.000514867
0.000540376
-0.000384993
-0.000380153
0.000119867
0.000119123
0.000190978
0.000207682
-0.000428902
-0.000534729
0.000489214
0.000762002
-0.00033176
-0.000775477
1.98874e-05
0.000499114
0.00027954
3.54406e-05
-0.000358843
-0.000642673
9.24682e-05
0.00101784
0.000431946
-0.000887639
-0.000876245
0.000234443
0.000808167
0.000557942
-4.41566e-05
-0.000840264
-0.00103204
0.000187785
0.00154082
0.00103247
-0.000786866
-0.00163543
-0.000817925
0.000593096
0.00161818
0.00151748
-0.00020131
-0.00232556
-0.00239106
9.9495e-05
0.00269501
0.00300711
0.000971181
-0.00201993
-0.00416792
-0.00351988
0.000449422
0.00513889
0.00656377
0.00317956
-0.00301065
-0.00848022
-0.00994054
-0.00528376
0.00465187
0.014999
0.0192461
0.013456
-0.00178388
-0.0220281
-0.0397451
-0.0452011
-0.0292672
0.0130473
0.0815541
0.172402
0.279337
0.394054
0.507578
0.612779
0.705533
0.783707
0.846269
0.893795
0.928705
0.95389
0.971341
0.982513
0.989321
0.993776
0.996834
0.998479
0.998962
0.999196
0.999747
1.00021
1.00008
0.999691
0.999741
1.00019
1.00034
0.999941
0.999623
0.99989
1.00034
1.00028
0.999782
0.999601
1.00002
1.00043
1.00021
0.999669
0.999588
1.00011
1.0005
1.0002
0.999597
0.999533
1.00012
1.00058
1.00027
0.999576
0.999404
1.00001
1.00065
1.00048
0.999678
0.99922
0.999711
1.0006
1.00083
1.00006
0.999147
0.999166
1.00017
1.00108
1.00084
0.999628
0.998693
0.999092
1.00053
1.00157
1.00109
0.999413
0.99811
0.998528
1.00046
1.00224
1.00215
1.00003
0.997531
0.996838
0.998823
1.0022
1.00436
1.00333
0.99938
0.995067
0.993594
0.996606
1.00286
1.0087
1.01008
1.00506
0.995203
0.985221
0.980904
0.986328
1.00162
1.02224
1.03992
1.045
1.02908
0.987134
0.918659
0.82744
0.720428
0.606073
0.49268
0.387133
0.294191
0.216331
0.154019
0.106226
0.0710068
0.046022
0.0289317
0.0176454
0.0104426
0.00599688
0.00334158
0.00180634
0.000946938
0.000481155
0.000236793
0.000112755
5.18792e-05
2.30226e-05
9.82979e-06
4.02425e-06
1.57204e-06
5.81743e-07
2.01588e-07
6.40964e-08
1.79364e-08
3.94529e-09
3.527e-10
-2.75208e-10
-2.32189e-10
-1.20577e-10
-5.07288e-11
-1.82882e-11
-5.63914e-12
-1.40118e-12
-2.1306e-13
3.2916e-14
4.59363e-14
2.47225e-14
9.91161e-15
3.21641e-15
8.20716e-16
1.30422e-16
-1.39959e-17
-2.27265e-17
-1.17981e-17
-4.39539e-18
-1.2666e-18
-2.56199e-19
-1.15439e-20
2.03847e-20
1.26199e-20
4.91258e-21
1.41967e-21
2.79204e-22
8.95314e-24
-2.30501e-23
-1.32519e-23
-4.79376e-24
-1.24379e-24
-1.89672e-25
2.04463e-26
2.86793e-26
1.28386e-26
3.87744e-27
7.74923e-28
3.27518e-29
-5.47368e-29
-3.0293e-29
-1.0062e-29
-2.234e-30
-1.95633e-31
1.02859e-31
6.6994e-32
2.32249e-32
5.28437e-33
5.07666e-34
-2.13073e-34
-1.43346e-34
-4.89418e-35
-1.06863e-35
-8.48907e-37
4.96845e-37
2.96972e-37
9.42076e-38
1.83843e-38
6.37867e-40
-1.19359e-39
-5.81698e-40
-1.62429e-40
-2.55175e-41
1.58455e-42
2.68155e-42
1.03864e-42
2.40778e-43
2.359e-44
-8.29464e-45
-5.30957e-45
-1.61753e-45
-2.81904e-46
2.6516e-48
2.19985e-47
8.91701e-48
2.06339e-48
1.96486e-49
-6.93783e-50
-4.23662e-50
-1.21614e-50
-1.874e-51
1.12006e-52
1.76975e-52
6.24148e-53
1.23108e-53
5.07257e-55
-6.52404e-55
-2.89348e-55
-6.7709e-56
-6.47539e-57
2.09442e-57
1.2391e-57
3.32335e-58
4.35712e-59
-5.58616e-60
-4.9835e-60
-1.50197e-60
-2.34896e-61
1.04431e-62
1.90922e-62
6.36904e-63
1.11408e-63
6.56395e-67
-7.06071e-65
-2.56638e-65
-4.82726e-66
-1.28367e-67
2.55286e-67
9.91418e-68
1.94759e-68
7.96497e-70
-9.12559e-70
-3.69404e-70
-7.39309e-71
-3.45231e-72
3.25102e-72
1.33233e-72
2.65474e-73
1.20515e-74
-1.15783e-74
-4.65778e-75
-9.03359e-76
-3.37867e-77
4.11267e-77
1.57732e-77
2.90916e-78
6.48665e-80
-1.44732e-79
-5.16152e-80
-8.82542e-81
1.22265e-83
5.00121e-82
1.62565e-82
2.49938e-83
-9.25359e-85
-1.68105e-84
-4.90115e-85
-6.49957e-86
6.00082e-87
5.44831e-87
1.4044e-87
1.50213e-88
-2.81503e-89
-1.68912e-89
-3.78838e-90
-2.84922e-91
1.11889e-91
4.97161e-92
9.48757e-93
3.21188e-94
-3.9589e-94
-1.37824e-94
-2.15613e-95
5.4657e-97
1.27245e-96
3.56422e-97
4.24909e-98
-5.33799e-99
-3.74584e-99
-8.48242e-100
-6.4162e-101
2.34057e-101
1.01122e-101
1.81632e-102
3.30959e-104
-7.98303e-104
-2.492e-104
-3.34336e-105
2.45319e-106
2.33351e-106
5.53906e-107
4.66312e-108
-1.32618e-108
-6.02176e-109
-1.08214e-109
-2.09054e-111
4.53658e-111
1.37933e-111
1.74713e-112
-1.56612e-113
-1.25478e-113
-2.77127e-114
-1.88476e-115
7.59176e-116
2.96861e-116
4.69887e-117
-6.71557e-119
-2.32848e-118
-6.06132e-119
-5.97166e-120
1.11476e-120
5.71122e-121
1.04381e-121
2.59586e-123
-3.95557e-123
-1.17587e-123
-1.39201e-124
1.47929e-125
1.00583e-125
2.01839e-126
9.40541e-128
-6.31447e-128
-2.0693e-128
-2.69403e-129
1.88269e-130
1.6501e-130
3.48618e-131
1.99346e-132
-9.69509e-133
-3.3493e-133
-4.51761e-134
2.53704e-135
2.55057e-135
5.45064e-136
3.22094e-137
-1.45366e-137
-5.02264e-138
-6.67431e-139
3.91538e-140
3.73272e-140
7.75614e-141
4.13108e-142
-2.13335e-142
-6.99095e-143
-8.70811e-144
6.695e-145
5.16403e-145
1.00359e-145
3.98084e-147
-3.03277e-147
-9.0038e-148
-9.92667e-149
1.14855e-149
6.70718e-150
1.17248e-150
2.00831e-152
-4.10351e-152
-1.065e-152
-9.58263e-154
1.83778e-154
8.09275e-155
1.21845e-155
-2.17129e-157
-5.18605e-157
-1.14312e-157
-7.19342e-159
2.65244e-159
8.95322e-160
1.09437e-160
-8.1723e-162
-6.01779e-162
-1.09325e-162
-2.87761e-164
3.40784e-164
8.93967e-165
7.97011e-166
-1.47127e-166
-6.31149e-167
-9.03615e-168
2.49875e-169
3.87147e-169
7.88825e-170
3.81688e-171
-1.99551e-171
-5.88416e-172
-6.06765e-173
7.80813e-174
2.97033e-174
)
;

boundaryField
{
    sides
    {
        type            zeroGradient;
    }
    empty
    {
        type            empty;
    }
}


// ************************************************************************* //
