/*--------------------------------*- C++ -*----------------------------------*\
| =========                 |                                                 |
| \\      /  F ield         | OpenFOAM: The Open Source CFD Toolbox           |
|  \\    /   O peration     | Version:  2312                                  |
|   \\  /    A nd           | Website:  www.openfoam.com                      |
|    \\/     M anipulation  |                                                 |
\*---------------------------------------------------------------------------*/
FoamFile
{
    version     2.0;
    format      ascii;
    arch        "LSB;label=32;scalar=64";
    class       volScalarField;
    location    "0.9";
    object      T;
}
// * * * * * * * * * * * * * * * * * * * * * * * * * * * * * * * * * * * * * //

dimensions      [0 0 0 1 0 0 0];

internalField   nonuniform List<scalar> 
1000
(
0
0
0
0
0
0
0
0
0
0
0
0
0
0
0
0
0
0
0
0
0
0
0
0
0
0
0
0
0
0
0
0
0
0
0
0
0
0
0
0
0
0
0
0
0
0
0
0
0
0
0
0
0
0
0
0
0
0
0
0
0
0
0
0
0
0
0
0
0
0
0
0
0
0
0
0
0
0
0
0
0
0
0
0
0
0
0
0
0
0
0
0
0
0
0
0
0
0
0
0
0
0
0
0
0
0
0
0
0
0
0
0
0
0
0
0
0
0
0
0
0
0
0
0
0
0
0
0
0
0
0
0
0
0
0
0
0
0
0
-4.44659e-323
1.49208e-321
-4.62396e-320
1.42804e-318
-4.38863e-317
1.34196e-315
-4.08287e-314
1.23597e-312
-3.7227e-311
1.11562e-309
-3.32642e-308
9.86815e-307
-2.91266e-305
8.55331e-304
-2.499e-302
7.26405e-301
-2.10073e-299
6.04418e-298
-1.73011e-296
4.92692e-295
-1.39585e-293
3.93423e-292
-1.10315e-290
3.07719e-289
-8.53925e-288
2.35735e-286
-6.47386e-285
1.76861e-283
-4.80648e-282
1.2994e-280
-3.4944e-279
9.34792e-278
-2.4875e-276
6.58435e-275
-1.73364e-273
4.54041e-272
-1.18282e-270
3.06494e-269
-7.89955e-268
2.02513e-266
-5.16379e-265
1.30962e-263
-3.30351e-262
8.28809e-261
-2.06813e-259
5.13262e-258
-1.26687e-256
3.10994e-255
-7.59266e-254
1.84353e-252
-4.45159e-251
1.06902e-249
-2.553e-248
6.06329e-247
-1.43203e-245
3.36335e-244
-7.85537e-243
1.82443e-241
-4.21355e-240
9.67658e-239
-2.20975e-237
5.01769e-236
-1.13292e-234
2.54344e-233
-5.67759e-232
1.26014e-230
-2.78087e-229
6.10158e-228
-1.33105e-226
2.88691e-225
-6.22515e-224
1.33455e-222
-2.84436e-221
6.02683e-220
-1.26953e-218
2.65848e-217
-5.53424e-216
1.14527e-214
-2.35599e-213
4.81778e-212
-9.79312e-211
1.97873e-209
-3.97409e-208
7.93346e-207
-1.57418e-205
3.1046e-204
-6.08564e-203
1.18562e-201
-2.29572e-200
4.4179e-199
-8.44938e-198
1.60597e-196
-3.03352e-195
5.69432e-194
-1.06222e-192
1.96902e-191
-3.62697e-190
6.63873e-189
-1.20743e-187
2.18206e-186
-3.9182e-185
6.99058e-184
-1.23918e-182
2.18244e-181
-3.81875e-180
6.63843e-179
-1.14646e-177
1.96696e-176
-3.35245e-175
5.67604e-174
-9.5463e-173
1.59485e-171
-2.64659e-170
4.36238e-169
-7.14197e-168
1.16134e-166
-1.87557e-165
3.00835e-164
-4.79215e-163
7.581e-162
-1.19098e-160
1.85802e-159
-2.87838e-158
4.4278e-157
-6.76322e-156
1.02573e-154
-1.54457e-153
2.30921e-152
-3.4276e-151
5.05091e-150
-7.38901e-149
1.07306e-147
-1.54693e-146
2.21364e-145
-3.14425e-144
4.43288e-143
-6.20292e-142
8.61451e-141
-1.18733e-139
1.62407e-138
-2.20448e-137
2.96937e-136
-3.96879e-135
5.26342e-134
-6.92591e-133
9.042e-132
-1.17115e-130
1.50487e-129
-1.91826e-128
2.42556e-127
-3.04227e-126
3.78477e-125
-4.67e-124
5.7149e-123
-6.93571e-122
8.34724e-121
-9.96185e-120
1.17885e-118
-1.38318e-117
1.60905e-116
-1.85571e-115
2.12165e-114
-2.40456e-113
2.70128e-112
-3.0078e-111
3.31929e-110
-3.63021e-109
3.93441e-108
-4.22532e-107
4.49617e-106
-4.74022e-105
4.95103e-104
-5.12275e-103
5.25037e-102
-5.32992e-101
5.35876e-100
-5.33563e-99
5.26077e-98
-5.13593e-97
4.96431e-96
-4.75041e-95
4.49984e-94
-4.21908e-93
3.91519e-92
-3.5955e-91
3.26736e-90
-2.93779e-89
2.61329e-88
-2.29959e-87
2.00153e-86
-1.72295e-85
1.46669e-84
-1.23453e-83
1.02733e-82
-8.45111e-82
6.87154e-81
-5.52172e-80
4.38445e-79
-3.43966e-78
2.6657e-77
-2.04051e-76
1.54252e-75
-1.15137e-74
8.48436e-74
-6.17122e-73
4.42987e-72
-3.13762e-71
2.19236e-70
-1.51093e-69
1.02683e-68
-6.88e-68
4.54372e-67
-2.95709e-66
1.89601e-65
-1.19736e-64
7.44565e-64
-4.55772e-63
2.74555e-62
-1.62708e-61
9.48293e-61
-5.43344e-60
3.05945e-59
-1.69229e-58
9.19142e-58
-4.89971e-57
2.56228e-56
-1.31378e-55
6.60102e-55
-3.24809e-54
1.56417e-53
-7.36645e-53
3.39005e-52
-1.52314e-51
6.67469e-51
-2.84969e-50
1.18384e-49
-4.77852e-49
1.871e-48
-7.09229e-48
2.59666e-47
-9.15637e-47
3.0986e-46
-1.00172e-45
3.07469e-45
-8.88284e-45
2.38383e-44
-5.81251e-44
1.2329e-43
-2.03135e-43
1.39432e-43
6.94336e-43
-4.07745e-42
1.3713e-41
-3.37862e-41
5.71495e-41
-2.44815e-41
-2.6587e-40
1.24766e-39
-3.32595e-39
5.20719e-39
8.84027e-40
-3.62366e-38
1.29643e-37
-2.47263e-37
7.7742e-38
1.26263e-36
-4.82125e-36
8.44581e-36
1.76574e-36
-5.72661e-35
1.6948e-34
-1.74331e-34
-4.98492e-34
2.5078e-33
-4.19033e-33
-3.24619e-33
3.36535e-32
-6.98695e-32
-1.7846e-32
4.53357e-31
-9.99078e-31
-2.67907e-31
6.38011e-30
-1.26383e-29
-9.28952e-30
9.12975e-29
-1.31124e-28
-2.60177e-28
1.22387e-27
-7.55206e-28
-5.49652e-27
1.33464e-26
8.94512e-27
-8.68762e-26
7.82258e-26
3.62731e-25
-9.03865e-25
-8.12993e-25
5.80503e-24
-2.1945e-24
-2.84351e-23
3.97026e-23
1.1249e-22
-3.03418e-22
-3.44372e-22
1.81562e-21
5.76418e-22
-9.61678e-21
2.11765e-21
4.76372e-20
-2.93937e-20
-2.2853e-19
2.06247e-19
1.08918e-18
-1.15899e-18
-5.24589e-18
5.65385e-18
2.56968e-17
-2.39594e-17
-1.27273e-16
8.16016e-17
6.26545e-16
-1.44734e-16
-2.98552e-15
-8.41758e-16
1.32683e-14
1.22438e-14
-5.1811e-14
-9.45638e-14
1.54945e-13
5.58238e-13
-1.58905e-13
-2.61481e-12
-2.0982e-12
8.97058e-12
1.97163e-11
-1.3671e-11
-1.01629e-10
-8.20034e-11
3.07343e-10
7.9967e-10
-2.20724e-11
-3.30259e-09
-5.44226e-09
3.83567e-09
2.85795e-08
3.78108e-08
-3.96985e-08
-2.25192e-07
-3.0438e-07
2.23515e-07
1.63093e-06
2.76032e-06
1.98683e-07
-9.67825e-06
-2.37504e-05
-2.30407e-05
2.71221e-05
0.000150373
0.000297674
0.000275138
-0.000265065
-0.0016623
-0.00382969
-0.00560968
-0.00411006
0.00561489
0.0301537
0.0764105
0.149557
0.250874
0.376318
0.516514
0.658412
0.788187
0.894452
0.970736
1.01643
1.03606
1.03729
1.02849
1.01671
1.00656
1.00002
0.997107
0.996762
0.997686
0.998863
0.999747
1.00019
1.0003
1.00022
1.00011
1.00002
0.999981
0.999974
0.999983
0.999993
1
1
1
1
1
1
1
1
1
1
1
1
1
1
1
1
1
1
1
1
1
1
1
1
1
1
1
1
1
1
1
1
1
1
1
1
1
1
1
1
1
1
1
1
1
1
1
1
1
1
1
1
1
0.999998
0.999997
1
1.00001
1.00002
1.00002
0.999973
0.99985
0.999702
0.999725
1.00027
1.00166
1.00383
1.00561
1.00411
0.994385
0.969846
0.92359
0.850443
0.749126
0.623682
0.483486
0.341588
0.211813
0.105548
0.0292641
-0.0164311
-0.0360598
-0.0372855
-0.0284865
-0.0167142
-0.00655904
-1.91135e-05
0.00289343
0.00323794
0.00231398
0.00113662
0.000253273
-0.000193803
-0.000297948
-0.000224367
-0.000108524
-2.17687e-05
1.90077e-05
2.58094e-05
1.72552e-05
6.79802e-06
2.08585e-07
-2.11594e-06
-1.92954e-06
-9.7855e-07
-2.13235e-07
1.31823e-07
1.76933e-07
1.04868e-07
3.12475e-08
-6.48719e-09
-1.44363e-08
-9.42278e-09
-3.12858e-09
2.93428e-10
1.10462e-09
7.46157e-10
2.49327e-10
-1.9851e-11
-8.12991e-11
-5.30909e-11
-1.64122e-11
2.20826e-12
5.73723e-12
3.39388e-12
8.79785e-13
-2.45326e-13
-3.79364e-13
-1.91992e-13
-3.51946e-14
2.25874e-14
2.27994e-14
9.31641e-15
6.61083e-16
-1.70186e-15
-1.20629e-15
-3.64262e-16
4.34103e-17
1.05782e-16
5.41283e-17
9.58496e-18
-5.81545e-18
-5.41814e-18
-1.93731e-18
3.92556e-22
3.95793e-19
2.24357e-19
4.68759e-20
-1.84083e-20
-1.94287e-20
-7.08823e-21
-1.08532e-22
1.30072e-21
7.19821e-22
1.38881e-22
-6.09835e-23
-5.78122e-23
-1.89765e-23
7.00157e-25
3.79105e-24
1.81241e-24
2.45817e-25
-1.95823e-25
-1.4108e-25
-3.61664e-26
6.436e-27
9.34009e-27
3.46191e-27
1.04854e-28
-5.27694e-28
-2.6966e-28
-4.1299e-29
2.45282e-29
1.81966e-29
4.53662e-30
-8.03708e-31
-1.089e-30
-3.71818e-31
1.01179e-33
5.81203e-32
2.59592e-32
2.70889e-33
-2.73818e-33
-1.61706e-33
-2.99729e-34
1.09634e-34
9.18153e-35
2.35265e-35
-3.28219e-36
-4.80323e-36
-1.56542e-36
2.53777e-38
2.32601e-37
9.34486e-38
6.21989e-39
-1.04244e-38
-5.13712e-39
-6.66522e-40
4.29768e-40
2.63874e-40
4.81678e-41
-1.60436e-41
-1.27816e-41
-2.93689e-42
5.21975e-43
5.87508e-43
1.61203e-43
-1.32184e-44
-2.57435e-44
-8.19701e-45
1.26939e-46
1.07914e-45
3.92213e-46
1.34946e-47
-4.3398e-47
-1.78324e-47
-1.31651e-48
1.67835e-48
7.75571e-49
8.22952e-50
-6.2553e-50
-3.24256e-50
-4.31877e-51
2.25141e-51
1.30815e-51
2.0439e-52
-7.84189e-53
-5.10805e-53
-8.98988e-54
2.64958e-54
1.93544e-54
3.73324e-55
-8.70851e-56
-7.13105e-56
-1.4775e-56
2.79407e-57
2.55954e-57
5.60679e-58
-8.78921e-59
-8.96329e-59
-2.04861e-59
2.72521e-60
3.06642e-60
7.22848e-61
-8.38075e-62
-1.02591e-61
-2.46836e-62
2.57302e-63
3.35945e-63
8.16987e-64
-7.93345e-65
-1.0774e-64
-2.62388e-65
2.46676e-66
3.38549e-66
8.18297e-67
-7.74443e-68
-1.04257e-67
-2.47906e-68
2.4504e-69
3.14668e-69
7.29659e-70
-7.77979e-71
-9.30737e-71
-2.08606e-71
2.46434e-72
2.69727e-72
5.79016e-73
-7.74249e-74
-7.65581e-74
-1.55898e-74
2.40014e-75
2.1273e-75
4.06644e-76
-7.31021e-77
-5.78362e-77
-1.02565e-77
2.18057e-78
1.53755e-78
2.4948e-79
-6.35553e-80
-3.99406e-80
-5.82923e-81
1.80707e-81
1.013e-81
1.3006e-82
-5.00679e-83
-2.50631e-83
-2.74458e-84
1.35074e-84
6.04305e-85
5.3866e-86
-3.54634e-86
-1.41832e-86
-9.50538e-88
9.0575e-88
3.23594e-88
1.38332e-89
-2.24962e-89
-7.16497e-90
-1.12663e-91
5.43177e-91
1.53642e-91
-2.29873e-93
-1.27452e-92
-3.18202e-93
1.61332e-94
2.90498e-94
6.34112e-95
-5.9427e-96
-6.42827e-96
-1.20936e-96
1.78695e-97
1.38007e-97
2.18911e-98
-4.80882e-99
-2.87194e-99
-3.70889e-100
1.19934e-100
5.7863e-101
5.72798e-102
-2.81938e-102
-1.12691e-102
-7.58574e-104
6.30526e-104
2.1169e-104
6.97852e-106
-1.34882e-105
-3.82396e-106
2.18198e-108
2.76902e-107
6.61312e-108
-3.39197e-109
-5.46544e-109
-1.08754e-109
1.17708e-110
1.03805e-110
1.682e-111
-3.11208e-112
-1.89717e-112
-2.39805e-113
7.20436e-114
3.33367e-114
3.02097e-115
-1.52939e-115
-5.62203e-116
-2.98403e-117
3.03973e-117
9.07159e-118
1.06003e-119
-5.71753e-119
-1.39356e-119
5.11509e-121
1.02373e-120
2.02136e-121
-1.97173e-122
-1.75018e-122
-2.72871e-123
4.95997e-124
2.86017e-124
3.33227e-125
-1.05257e-125
-4.46573e-126
-3.43878e-127
2.01672e-127
6.64699e-128
2.32663e-129
-3.58627e-129
-9.38984e-130
1.19488e-131
5.9987e-131
1.24888e-131
-8.92634e-133
-9.50302e-133
-1.54125e-133
2.33771e-134
1.43026e-134
1.71387e-135
-4.77585e-136
-2.0461e-136
-1.59799e-137
8.57868e-138
2.77681e-138
9.44088e-140
-1.41207e-139
-3.5572e-140
5.83083e-142
2.1696e-141
4.25978e-142
-3.3924e-143
-3.1397e-143
-4.67906e-144
7.92918e-145
4.29612e-145
4.52374e-146
-1.46068e-146
-5.56053e-147
-3.42339e-148
2.37053e-148
6.7878e-149
9.55975e-151
-3.52444e-150
-7.75783e-151
3.29923e-152
4.88457e-152
8.17903e-153
-9.68329e-154
-6.36119e-154
-7.70795e-155
1.83599e-155
7.80578e-156
5.98794e-157
-2.92119e-157
-9.01291e-158
-2.70583e-159
4.17521e-159
9.73389e-160
-2.33872e-161
-5.50734e-161
-9.70348e-162
9.16165e-163
6.7861e-163
8.67834e-164
-1.75349e-164
-7.84847e-165
-6.4827e-166
2.69549e-166
8.51735e-167
3.054e-168
-3.66519e-168
-8.62596e-169
1.52076e-170
4.565e-170
8.04586e-171
-6.98725e-172
-5.28749e-172
-6.7138e-173
1.29317e-173
5.72986e-174
4.65201e-175
-1.88176e-175
-5.80991e-176
-1.97704e-177
2.40482e-177
5.48065e-178
-1.10621e-179
-2.80465e-179
-4.74073e-180
4.32563e-181
3.03402e-181
3.63822e-182
-7.37589e-183
-3.06352e-183
-2.26667e-184
9.95981e-185
2.88645e-185
7.53574e-187
-1.18301e-186
-2.52026e-187
7.56745e-189
1.28236e-188
2.00416e-189
-2.13143e-190
-1.12465e-190
)
;

boundaryField
{
    sides
    {
        type            zeroGradient;
    }
    empty
    {
        type            empty;
    }
}


// ************************************************************************* //
