/*--------------------------------*- C++ -*----------------------------------*\
| =========                 |                                                 |
| \\      /  F ield         | OpenFOAM: The Open Source CFD Toolbox           |
|  \\    /   O peration     | Version:  2312                                  |
|   \\  /    A nd           | Website:  www.openfoam.com                      |
|    \\/     M anipulation  |                                                 |
\*---------------------------------------------------------------------------*/
FoamFile
{
    version     2.0;
    format      ascii;
    arch        "LSB;label=32;scalar=64";
    class       volScalarField;
    location    "3";
    object      T;
}
// * * * * * * * * * * * * * * * * * * * * * * * * * * * * * * * * * * * * * //

dimensions      [0 0 0 1 0 0 0];

internalField   nonuniform List<scalar> 
1000
(
0
0
3.45846e-323
-3.35965e-322
3.1966e-321
-3.10372e-320
3.01993e-319
-2.92822e-318
2.83072e-317
-2.72825e-316
2.62156e-315
-2.51143e-314
2.39863e-313
-2.28394e-312
2.1681e-311
-2.05185e-310
1.93589e-309
-1.82087e-308
1.70741e-307
-1.59608e-306
1.48738e-305
-1.38179e-304
1.27969e-303
-1.18144e-302
1.08731e-301
-9.97543e-301
9.12304e-300
-8.31715e-299
7.55843e-298
-6.84712e-297
6.18299e-296
-5.56545e-295
4.99353e-294
-4.466e-293
3.98132e-292
-3.53778e-291
3.13346e-290
-2.76633e-289
2.43425e-288
-2.13503e-287
1.86645e-286
-1.62629e-285
1.41235e-284
-1.2225e-283
1.05465e-282
-9.06818e-282
7.77103e-281
-6.63711e-280
5.6496e-279
-4.79279e-278
4.05217e-277
-3.41436e-276
2.86715e-275
-2.39942e-274
2.0011e-273
-1.66317e-272
1.37754e-271
-1.13701e-270
9.35225e-270
-7.66568e-269
6.26129e-268
-5.09626e-267
4.1334e-266
-3.34062e-265
2.69032e-264
-2.15891e-263
1.72628e-262
-1.37541e-261
1.09191e-260
-8.6372e-260
6.80745e-259
-5.34583e-258
4.18273e-257
-3.26071e-256
2.5326e-255
-1.95983e-254
1.51098e-253
-1.16061e-252
8.88155e-252
-6.77118e-251
5.14287e-250
-3.89141e-249
2.93333e-248
-2.20273e-247
1.6478e-246
-1.22794e-245
9.11551e-245
-6.74068e-244
4.96524e-243
-3.6432e-242
2.66273e-241
-1.93849e-240
1.40568e-239
-1.01528e-238
7.30396e-238
-5.23354e-237
3.73498e-236
-2.6548e-235
1.87939e-234
-1.32506e-233
9.30424e-233
-6.50646e-232
4.53126e-231
-3.14265e-230
2.17054e-229
-1.49288e-228
1.02249e-227
-6.97374e-227
4.73621e-226
-3.20294e-225
2.1568e-224
-1.44613e-223
9.65445e-223
-6.41749e-222
4.24727e-221
-2.79868e-220
1.83605e-219
-1.1992e-218
7.79778e-218
-5.04787e-217
3.25307e-216
-2.08698e-215
1.33282e-214
-8.47308e-214
5.36191e-213
-3.37748e-212
2.11764e-211
-1.32156e-210
8.20886e-210
-5.07494e-209
3.12261e-208
-1.9122e-207
1.16537e-206
-7.06806e-206
4.26605e-205
-2.5623e-204
1.53144e-203
-9.108e-203
5.38995e-202
-3.17375e-201
1.85939e-200
-1.08385e-199
6.28564e-199
-3.6266e-198
2.08163e-197
-1.18863e-196
6.7517e-196
-3.81494e-195
2.14415e-194
-1.19867e-193
6.66501e-193
-3.68591e-192
2.02728e-191
-1.1089e-190
6.03194e-190
-3.26283e-189
1.75502e-188
-9.38651e-188
4.99159e-187
-2.63917e-186
1.38729e-185
-7.24968e-185
3.76617e-184
-1.94486e-183
9.98305e-183
-5.0933e-182
2.5827e-181
-1.30155e-180
6.51835e-180
-3.24397e-179
1.60418e-178
-7.88201e-178
3.84772e-177
-1.86605e-176
8.99008e-176
-4.30227e-175
2.045e-174
-9.65421e-174
4.52622e-173
-2.10724e-172
9.74133e-172
-4.47106e-171
2.03728e-170
-9.21516e-170
4.13735e-169
-1.84361e-168
8.15261e-168
-3.57734e-167
1.55744e-166
-6.72669e-166
2.88188e-165
-1.22457e-164
5.16016e-164
-2.15605e-163
8.93113e-163
-3.66725e-162
1.49242e-161
-6.0185e-161
2.40465e-160
-9.51705e-160
3.73038e-159
-1.44781e-158
5.56267e-158
-2.11525e-157
7.95858e-157
-2.962e-156
1.09014e-155
-3.96632e-155
1.4261e-154
-5.06525e-154
1.7765e-153
-6.14948e-153
2.09992e-152
-7.06989e-152
2.34526e-151
-7.65993e-151
2.46125e-150
-7.77269e-150
2.40984e-149
-7.32538e-149
2.17975e-148
-6.33667e-148
1.79522e-147
-4.94054e-147
1.31504e-146
-3.36464e-146
8.19867e-146
-1.87389e-145
3.90519e-145
-6.95609e-145
8.4656e-145
4.55988e-145
-7.88714e-144
3.56018e-143
-1.21138e-142
3.5139e-142
-8.93492e-142
1.96643e-141
-3.49353e-141
3.63278e-141
5.85639e-141
-5.1577e-140
2.03451e-139
-6.10693e-139
1.50072e-138
-2.93064e-138
3.64501e-138
2.50411e-138
-3.52527e-137
1.43449e-136
-4.16978e-136
9.3631e-136
-1.46609e-135
4.24619e-136
7.64552e-135
-3.63744e-134
1.09589e-133
-2.41539e-133
3.37379e-133
1.0634e-133
-2.6312e-132
1.05292e-131
-2.77118e-131
4.92078e-131
-2.85629e-131
-1.96242e-130
9.97195e-130
-2.86084e-129
5.37468e-129
-3.69337e-129
-1.92465e-128
1.01214e-127
-2.84094e-127
4.91937e-127
-1.52232e-127
-2.51395e-126
1.08331e-125
-2.64126e-125
3.4182e-125
3.45035e-125
-3.47522e-124
1.10898e-123
-2.02462e-123
6.81123e-124
1.01256e-122
-4.1994e-122
9.23134e-122
-7.7931e-122
-2.8998e-121
1.54003e-120
-3.76669e-120
3.97779e-120
9.14484e-120
-5.70987e-119
1.44901e-118
-1.55374e-118
-3.52537e-118
2.17796e-117
-5.32401e-117
4.81557e-117
1.63217e-116
-8.46054e-116
1.8376e-115
-9.48145e-116
-8.08428e-115
3.23614e-114
-5.64443e-114
-1.37607e-114
3.87288e-113
-1.15608e-112
1.32807e-112
2.80406e-112
-1.68201e-111
3.54487e-111
-8.20764e-112
-1.88244e-110
6.2332e-110
-7.56525e-110
-1.4646e-109
8.90244e-109
-1.7614e-108
-1.38108e-109
1.09129e-107
-3.08047e-107
2.36727e-107
1.15489e-106
-4.67777e-106
6.30979e-106
1.00813e-105
-6.52237e-105
1.19721e-104
5.81296e-105
-8.62242e-104
1.97246e-103
-1.88322e-104
-1.10711e-102
3.01106e-102
-1.34944e-102
-1.41108e-101
4.39442e-101
-2.91962e-101
-1.8227e-100
6.23975e-100
-4.84583e-100
-2.42817e-99
8.70254e-99
-6.92454e-99
-3.36925e-98
1.19616e-97
-8.6566e-98
-4.86312e-97
1.61662e-96
-9.01139e-97
-7.21582e-96
2.13107e-95
-6.09192e-96
-1.08082e-94
2.69927e-94
3.24895e-95
-1.60153e-93
3.20116e-93
2.3657e-93
-2.29965e-92
3.38156e-92
6.09692e-92
-3.12856e-91
2.79455e-91
1.20613e-90
-3.91473e-90
7.89949e-91
2.03749e-89
-4.28105e-89
-3.37551e-89
3.00476e-88
-3.60063e-88
-1.01867e-87
3.8098e-87
-1.07078e-87
-1.91881e-86
3.88994e-86
3.96383e-86
-2.8053e-85
2.47246e-85
1.13414e-84
-3.18766e-84
-1.11598e-84
1.91682e-83
-2.37196e-83
-6.79861e-83
2.31911e-82
2.27658e-83
-1.29087e-81
1.75201e-81
4.46841e-81
-1.57656e-80
-2.14379e-81
8.77807e-80
-1.07059e-79
-3.28526e-79
1.00398e-78
4.62283e-79
-5.94932e-78
4.96758e-78
2.5574e-77
-5.73283e-77
-6.76216e-77
3.82892e-76
-8.17795e-77
-1.93111e-75
2.57109e-75
7.37661e-75
-2.14001e-74
-1.63231e-74
1.2899e-73
-4.44836e-74
-6.30371e-73
8.41932e-73
2.48744e-72
-6.68704e-72
-6.85498e-72
4.07653e-71
1.42834e-73
-2.10887e-70
1.73749e-70
9.46578e-70
-1.63952e-69
-3.60432e-69
1.11046e-68
1.03741e-68
-6.41194e-68
-8.8241e-69
3.32659e-67
-1.70873e-67
-1.58232e-66
1.83027e-66
6.93267e-66
-1.32e-65
-2.7727e-65
8.12016e-65
9.80115e-65
-4.55846e-64
-2.76592e-64
2.40624e-63
3.42903e-64
-1.21436e-62
3.06001e-63
5.92274e-62
-3.61195e-62
-2.81378e-61
2.67097e-61
1.31058e-60
-1.67738e-60
-6.01992e-60
9.66249e-60
2.7425e-59
-5.27158e-59
-1.24639e-58
2.76933e-58
5.68431e-58
-1.41437e-57
-2.61646e-57
7.06381e-57
1.22165e-56
-3.46169e-56
-5.80674e-56
1.66732e-55
2.81388e-55
-7.89368e-55
-1.38884e-54
3.66814e-54
6.95965e-54
-1.66779e-53
-3.52379e-53
7.37884e-53
1.79239e-52
-3.14821e-52
-9.10397e-52
1.2755e-51
4.58988e-51
-4.76618e-51
-2.28332e-50
1.5353e-50
1.11401e-49
-3.34924e-50
-5.29508e-49
-4.52456e-50
2.43223e-48
1.22223e-48
-1.06794e-47
-1.04764e-47
4.408e-47
6.97099e-47
-1.65999e-46
-4.06202e-46
5.33417e-46
2.14985e-45
-1.16018e-45
-1.04393e-44
-1.26893e-45
4.62788e-44
3.63218e-44
-1.83234e-43
-2.90916e-43
6.11232e-43
1.74916e-42
-1.40379e-42
-8.86534e-42
-7.91386e-43
3.86253e-41
3.55285e-41
-1.40248e-40
-2.77891e-40
3.70106e-40
1.55239e-39
-1.87559e-40
-6.95175e-39
-5.84915e-39
2.44943e-38
4.97553e-38
-5.5526e-38
-2.72161e-37
-4.68183e-38
1.11988e-36
1.4189e-36
-3.22347e-36
-9.68332e-36
2.66973e-36
4.42643e-35
4.08716e-35
-1.38382e-34
-3.40795e-34
1.6246e-34
1.63575e-33
1.39652e-33
-5.04387e-33
-1.24186e-32
4.55231e-33
5.77007e-32
5.96539e-32
-1.56302e-31
-4.64386e-31
-1.3965e-32
1.88612e-30
2.79385e-30
-3.60015e-30
-1.67368e-29
-1.05529e-29
5.1789e-29
1.22467e-28
-1.8059e-29
-5.21266e-28
-7.58519e-28
8.64111e-28
4.43723e-27
3.86919e-27
-1.11832e-26
-3.41524e-26
-1.38955e-26
1.10721e-25
2.46852e-25
-1.09217e-27
-9.67014e-25
-1.72585e-24
6.41869e-25
7.86306e-24
1.20006e-23
-8.00643e-24
-6.11724e-23
-8.51852e-23
7.10266e-23
4.61801e-22
6.29e-22
-5.14989e-22
-3.39769e-21
-4.85099e-21
2.98458e-21
2.42401e-20
3.85663e-20
-1.04919e-20
-1.65029e-19
-3.0816e-19
-4.44494e-20
1.03821e-18
2.39932e-18
1.41568e-18
-5.64118e-18
-1.75805e-17
-1.86571e-17
2.16283e-17
1.15871e-16
1.85929e-16
1.2093e-17
-6.33732e-16
-1.51575e-15
-1.3087e-15
2.25224e-15
9.9406e-15
1.58963e-14
3.64631e-15
-4.63401e-14
-1.2575e-13
-1.49435e-13
6.18651e-14
6.65168e-13
1.45742e-12
1.42187e-12
-1.31359e-12
-8.14661e-12
-1.65627e-11
-1.56919e-11
1.41886e-11
8.9192e-11
1.88588e-10
2.07818e-10
-6.15543e-11
-8.42134e-10
-2.07747e-09
-2.93273e-09
-1.34951e-09
5.66521e-09
1.99769e-08
3.76647e-08
4.24629e-08
1.37234e-09
-1.28702e-07
-3.70697e-07
-6.634e-07
-7.69578e-07
-1.97701e-07
1.76665e-06
5.7661e-06
1.16379e-05
1.71412e-05
1.62919e-05
-2.07042e-06
-5.41498e-05
-0.000157323
-0.000319636
-0.00051952
-0.000673285
-0.000589855
8.43695e-05
0.00192326
0.00576932
0.0127569
0.0242939
0.041987
0.0675052
0.102386
0.1478
0.204314
0.271684
0.348724
0.433293
0.522413
0.612514
0.699782
0.780567
0.851772
0.911176
0.957637
0.99114
1.01269
1.0241
1.02766
1.02581
1.02084
1.01468
1.00872
1.00383
1.00038
0.998382
0.997576
0.997606
0.998103
0.998763
0.99938
0.999843
1.00012
1.00024
1.00024
1.00019
1.00011
1.00005
1
0.99998
0.999974
0.999978
0.999986
0.999994
0.999999
1
1
1
1
1
1
1
1
1
1
1
1
1
1
1
1
1
1
1
1
1
1
1
1
1
1
1
1
1
1
1
1
1
1
1
1
1
1
0.999998
0.999994
0.999988
0.999983
0.999984
1
1.00005
1.00016
1.00032
1.00052
1.00067
1.00059
0.999916
0.998077
0.994231
0.987243
0.975706
0.958013
0.932495
0.897614
0.8522
0.795686
0.728316
0.651276
0.566707
0.477587
0.387486
0.300218
0.219433
0.148228
0.0888237
0.0423625
0.00885954
-0.0126946
-0.0241049
-0.0276622
-0.0258102
-0.0208429
-0.0146763
-0.00871617
-0.00382662
-0.000383124
0.00161781
0.00242358
0.00239441
0.00189739
0.00123652
0.000619866
0.000157289
-0.000121402
-0.000239146
-0.000244188
-0.000188444
-0.000114106
-4.81814e-05
-2.94411e-06
2.02915e-05
2.6407e-05
2.23311e-05
1.42769e-05
6.4507e-06
8.98786e-07
-1.99089e-06
-2.77537e-06
-2.32754e-06
-1.42727e-06
-5.82226e-07
-1.78929e-08
2.43924e-07
2.85607e-07
2.13761e-07
1.13268e-07
3.21433e-08
-1.39934e-08
-2.9466e-08
-2.62972e-08
-1.60361e-08
-6.17005e-09
1.48975e-10
2.76339e-09
2.88775e-09
1.9147e-09
8.26159e-10
7.9766e-11
-2.54587e-10
-2.96991e-10
-2.04126e-10
-9.06082e-11
-1.11807e-11
2.4591e-11
2.93133e-11
1.9883e-11
8.49449e-12
7.59445e-13
-2.52293e-12
-2.78304e-12
-1.77288e-12
-6.78294e-13
8.59554e-15
2.62824e-13
2.50193e-13
1.42537e-13
4.37738e-14
-1.07281e-14
-2.61425e-14
-2.07274e-14
-9.98565e-15
-1.86702e-15
1.83775e-15
2.36473e-15
1.52712e-15
5.67034e-16
-1.77541e-17
-2.13959e-16
-1.87479e-16
-9.50369e-17
-2.08298e-17
1.38996e-17
1.94579e-17
1.25301e-17
4.4941e-18
-2.56335e-19
-1.72535e-18
-1.41826e-18
-6.5993e-19
-1.03284e-19
1.27438e-19
1.42969e-19
8.06921e-20
2.24024e-20
-6.99614e-21
-1.30832e-20
-8.76559e-21
-3.18415e-21
1.15963e-22
1.09881e-21
8.73135e-22
3.77023e-22
3.83838e-23
-8.52385e-23
-8.13169e-23
-3.99002e-23
-7.44914e-24
6.13054e-24
7.18064e-24
3.89773e-24
9.5129e-25
-4.1006e-25
-6.07999e-25
-3.5795e-25
-1.01715e-25
2.5662e-26
4.98355e-26
3.12662e-26
9.74263e-27
-1.52908e-27
-3.98641e-27
-2.61799e-27
-8.60272e-28
9.08825e-29
3.13198e-28
2.11226e-28
7.1025e-29
-5.90216e-30
-2.42724e-29
-1.64724e-29
-5.52062e-30
4.58816e-31
1.85882e-30
1.24327e-30
4.04853e-31
-4.21758e-32
-1.40556e-31
-9.0792e-32
-2.79586e-32
4.1547e-33
1.04629e-32
6.40382e-33
1.80631e-33
-4.04345e-34
-7.63234e-34
-4.34863e-34
-1.07688e-34
3.74537e-35
5.42607e-35
2.82957e-35
5.75909e-36
-3.26226e-36
-3.73731e-36
-1.75235e-36
-2.58065e-37
2.66569e-37
2.4785e-37
1.02284e-37
7.53377e-39
-2.04437e-38
-1.57219e-38
-5.54202e-39
1.57854e-40
1.47233e-39
9.4674e-40
2.71308e-40
-5.05308e-41
-9.95349e-41
-5.36083e-41
-1.13152e-41
5.469e-42
6.30472e-42
2.81571e-42
3.32921e-43
-4.52915e-43
-3.72712e-43
-1.3411e-43
1.25295e-45
3.22861e-44
2.04197e-44
5.5336e-45
-1.21713e-45
-2.05698e-45
-1.02405e-45
-1.74284e-46
1.25131e-46
1.18652e-46
4.59292e-47
1.76384e-48
-9.31418e-48
-6.19889e-48
-1.75069e-48
3.08429e-49
5.8272e-49
2.90177e-49
4.85874e-50
-3.46322e-50
-3.19262e-50
-1.18264e-50
-1.69449e-52
2.49117e-51
1.54443e-51
3.88956e-52
-1.01596e-52
-1.45312e-52
-6.50772e-53
-7.5672e-54
9.47249e-54
7.25181e-54
2.27652e-54
-1.98061e-55
-6.0032e-55
-3.11361e-55
-5.60315e-56
3.27429e-56
3.08912e-56
1.11471e-56
3.13959e-59
-2.3022e-57
-1.33832e-57
-2.95807e-58
1.05946e-58
1.21732e-58
4.79981e-59
2.51723e-60
-8.36182e-60
-5.26889e-60
-1.29268e-60
3.34729e-61
4.50011e-61
1.86183e-61
1.43171e-62
-2.92473e-62
-1.93508e-62
-2.95064e-63
)
;

boundaryField
{
    sides
    {
        type            zeroGradient;
    }
    empty
    {
        type            empty;
    }
}


// ************************************************************************* //
