/*--------------------------------*- C++ -*----------------------------------*\
| =========                 |                                                 |
| \\      /  F ield         | OpenFOAM: The Open Source CFD Toolbox           |
|  \\    /   O peration     | Version:  2312                                  |
|   \\  /    A nd           | Website:  www.openfoam.com                      |
|    \\/     M anipulation  |                                                 |
\*---------------------------------------------------------------------------*/
FoamFile
{
    version     2.0;
    format      ascii;
    arch        "LSB;label=32;scalar=64";
    class       volScalarField;
    location    "1.7";
    object      T;
}
// * * * * * * * * * * * * * * * * * * * * * * * * * * * * * * * * * * * * * //

dimensions      [0 0 0 1 0 0 0];

internalField   nonuniform List<scalar> 
1000
(
0
0
0
0
0
0
0
0
0
0
0
0
0
0
0
0
0
0
0
0
0
0
0
0
0
0
0
0
0
0
0
0
0
0
0
0
0
0
0
0
0
0
0
0
0
0
0
0
0
0
0
0
0
0
0
0
0
0
0
0
0
0
0
0
0
0
0
0
0
0
0
0
0
0
0
0
0
0
0
0
0
0
0
0
0
0
0
0
0
0
0
0
0
0
0
0
0
0
0
0
0
0
0
0
0
0
0
0
0
0
0
0
0
0
0
0
0
0
0
0
0
0
0
0
0
0
0
0
0
0
0
0
0
0
0
0
0
0
0
0
0
0
0
0
0
0
0
0
0
0
0
0
0
0
0
0
0
0
0
0
0
0
0
0
0
0
0
0
0
0
0
0
0
0
0
0
0
0
0
0
0
0
0
0
0
0
0
0
0
0
0
0
0
0
0
0
0
0
0
0
0
0
0
0
0
0
0
0
0
0
0
0
0
0
0
0
0
0
0
0
0
0
0
0
0
0
0
0
0
0
0
0
0
0
0
0
0
0
0
0
0
0
0
0
0
0
0
0
0
0
0
0
0
0
0
0
0
0
0
0
0
0
0
0
0
0
0
0
0
0
0
0
0
0
0
0
0
0
0
0
0
0
0
0
0
0
0
0
0
0
0
0
0
0
0
0
0
0
0
0
0
0
0
0
0
0
0
0
0
0
0
0
0
0
0
0
0
0
0
0
0
0
0
0
0
0
0
0
0
0
0
0
0
0
0
0
0
0
0
0
0
0
0
0
0
0
0
0
0
0
0
0
0
0
0
0
0
0
0
0
0
0
0
0
0
0
0
0
0
0
0
0
0
0
0
0
0
0
0
0
0
0
0
0
0
0
0
0
0
0
0
0
0
0
0
0
0
0
0
0
0
0
0
0
0
0
0
0
0
0
0
0
0
0
0
0
0
0
0
0
0
0
0
0
0
0
0
0
0
0
0
0
0
0
0
0
0
0
0
0
0
0
0
0
0
0
0
0
0
0
2.85573e-49
3.11794e-47
1.70324e-45
6.20696e-44
1.69759e-42
3.71675e-41
6.78581e-40
1.06263e-38
1.45701e-37
1.77696e-36
1.95177e-35
1.95019e-34
1.78743e-33
1.51325e-32
1.19042e-31
8.74621e-31
6.02844e-30
3.91342e-29
2.40093e-28
1.39642e-27
7.72101e-27
4.06855e-26
2.04786e-25
9.86632e-25
4.55854e-24
2.02334e-23
8.6413e-23
3.55633e-22
1.41232e-21
5.41912e-21
2.01143e-20
7.23018e-20
2.51948e-19
8.51958e-19
2.79814e-18
8.93391e-18
2.77518e-17
8.39374e-17
2.47373e-16
7.1086e-16
1.99314e-15
5.45614e-15
1.45911e-14
3.81412e-14
9.75079e-14
2.43922e-13
5.97369e-13
1.43293e-12
3.36816e-12
7.7614e-12
1.75407e-11
3.88949e-11
8.46533e-11
1.80911e-10
3.79762e-10
7.83315e-10
1.58813e-09
3.16592e-09
6.2075e-09
1.19748e-08
2.27343e-08
4.24894e-08
7.81963e-08
1.41747e-07
2.53151e-07
4.45545e-07
7.72959e-07
1.32214e-06
2.23028e-06
3.71106e-06
6.09242e-06
9.87028e-06
1.57837e-05
2.49181e-05
3.88454e-05
5.98089e-05
9.09657e-05
0.000136697
0.000202996
0.000297951
0.000432324
0.000620234
0.000879955
0.0012348
0.00171411
0.00235429
0.00319985
0.00430447
0.00573192
0.00755684
0.00986526
0.0127548
0.0163345
0.0207239
0.0260519
0.0324547
0.0400732
0.0490497
0.0595242
0.07163
0.085489
0.101207
0.118867
0.138529
0.160221
0.183938
0.209637
0.237241
0.266631
0.297654
0.33012
0.36381
0.398476
0.43385
0.46965
0.505586
0.541367
0.576708
0.61134
0.645008
0.677485
0.708571
0.738098
0.765932
0.791972
0.816152
0.838439
0.858831
0.877354
0.894056
0.909011
0.922304
0.934039
0.944325
0.953279
0.961019
0.967666
0.973334
0.978135
0.982176
0.985553
0.988358
0.990672
0.992568
0.994113
0.995363
0.996369
0.997172
0.99781
0.998314
0.998709
0.999017
0.999255
0.999439
0.99958
0.999687
0.999768
0.999829
0.999875
0.999909
0.999934
0.999952
0.999966
0.999975
0.999982
0.999987
0.999991
0.999993
0.999994
0.999993
0.999992
0.999989
0.999983
0.999974
0.999961
0.99994
0.999909
0.999863
0.999797
0.999702
0.999568
0.99938
0.99912
0.998765
0.998286
0.997646
0.9968
0.995696
0.994268
0.992443
0.990135
0.987245
0.983665
0.979276
0.973948
0.967545
0.959927
0.95095
0.940476
0.92837
0.914511
0.898793
0.881133
0.861471
0.839779
0.816062
0.790363
0.762759
0.733369
0.702346
0.66988
0.63619
0.601524
0.56615
0.53035
0.494414
0.458633
0.423292
0.38866
0.354992
0.322515
0.291429
0.261902
0.234068
0.208028
0.183848
0.161561
0.141169
0.122646
0.105944
0.0909894
0.0776957
0.0659611
0.0556751
0.0467212
0.0389805
0.0323342
0.026666
0.0218645
0.0178242
0.0144469
0.0116423
0.00932838
0.00743165
0.00588685
0.00463667
0.00363131
0.0028279
0.00218985
0.00168627
0.00129125
0.000983266
0.000744599
0.000560757
0.000419988
0.000312839
0.000231759
0.000170763
0.000125143
9.12184e-05
6.61356e-05
4.76952e-05
3.42148e-05
2.44153e-05
1.73313e-05
1.22386e-05
8.59762e-06
6.00868e-06
4.17779e-06
2.88996e-06
1.98897e-06
1.36196e-06
9.27922e-07
6.29047e-07
4.24316e-07
2.84801e-07
1.90217e-07
1.26423e-07
8.36149e-08
5.50339e-08
3.60478e-08
2.34984e-08
1.52448e-08
9.84326e-09
6.32558e-09
4.04592e-09
2.57573e-09
1.63215e-09
1.02945e-09
6.46321e-10
4.03923e-10
2.51286e-10
1.5562e-10
9.59399e-11
5.8882e-11
3.59769e-11
2.18843e-11
1.32532e-11
7.99091e-12
4.79699e-12
2.86714e-12
1.70626e-12
1.01104e-12
5.96521e-13
3.50452e-13
2.05015e-13
1.19428e-13
6.92788e-14
4.00198e-14
2.30218e-14
1.31888e-14
7.5245e-15
4.27531e-15
2.41927e-15
1.36344e-15
7.65294e-16
4.27832e-16
2.3822e-16
1.32115e-16
7.29798e-17
4.01549e-17
2.20073e-17
1.20143e-17
6.53335e-18
3.5391e-18
1.90974e-18
1.02657e-18
5.49727e-19
2.9326e-19
1.55853e-19
8.25163e-20
4.35248e-20
2.28725e-20
1.19751e-20
6.24648e-21
3.24634e-21
1.68098e-21
8.67253e-22
4.45813e-22
2.28344e-22
1.16537e-22
5.92629e-23
3.00299e-23
1.51629e-23
7.62913e-24
3.82508e-24
1.91111e-24
9.51512e-25
4.72102e-25
2.3343e-25
1.15022e-25
5.64831e-26
2.76423e-26
1.3482e-26
6.55336e-27
3.17477e-27
1.53286e-27
7.37641e-28
3.53787e-28
1.69122e-28
8.05803e-29
3.82675e-29
1.81139e-29
8.54634e-30
4.0192e-30
1.88407e-30
8.80359e-31
4.10044e-31
1.90378e-31
8.811e-32
4.06499e-32
1.8695e-32
8.57098e-33
3.91722e-33
1.78474e-33
8.10637e-34
3.6706e-34
1.65697e-34
7.45694e-35
3.34567e-35
1.49654e-35
6.67387e-36
2.96729e-36
1.31534e-36
5.81326e-37
2.56158e-37
1.1254e-37
4.92976e-38
2.1531e-38
9.3763e-39
4.07127e-39
1.76265e-39
7.60927e-40
3.27542e-40
1.40586e-40
6.01692e-41
2.56784e-41
1.09276e-41
4.63719e-42
1.96227e-42
8.28022e-43
3.48425e-43
1.46206e-43
6.11809e-44
2.55307e-44
1.06246e-44
4.4093e-45
1.82489e-45
7.53216e-46
3.10044e-46
1.27277e-46
5.21081e-47
2.12762e-47
8.66401e-48
3.51872e-48
1.42527e-48
5.75782e-49
2.31992e-49
9.3228e-50
3.73664e-50
1.49376e-50
5.95597e-51
2.36863e-51
9.3955e-52
3.71727e-52
1.46695e-52
5.77425e-53
2.2671e-53
8.87854e-54
3.46828e-54
1.35143e-54
5.25267e-55
2.03648e-55
7.87585e-56
3.03833e-56
1.16922e-56
4.48832e-57
1.71872e-57
6.56537e-58
2.5018e-58
9.51018e-59
3.60637e-59
1.36427e-59
5.14856e-60
1.93832e-60
7.27991e-61
2.72766e-61
1.01958e-61
3.80208e-62
1.41448e-62
5.24985e-63
1.94392e-63
7.18116e-64
2.64666e-64
9.73175e-65
3.57008e-65
1.30666e-65
4.77141e-66
1.73834e-66
6.31873e-67
2.29158e-67
8.29187e-68
2.99355e-68
1.0783e-68
3.87541e-69
1.3897e-69
4.97223e-70
1.77506e-70
6.32284e-71
2.24724e-71
7.96941e-72
2.81999e-72
9.95672e-73
3.5078e-73
1.23313e-73
4.32549e-74
1.51399e-74
5.28775e-75
1.84283e-75
6.40865e-76
2.22392e-76
7.70095e-77
2.66101e-77
9.17545e-78
3.15711e-78
1.08402e-78
3.71427e-79
1.26999e-79
4.33329e-80
1.47548e-80
5.01355e-81
1.70004e-81
5.75278e-82
1.94269e-82
6.54692e-83
2.20183e-83
7.38999e-84
2.47527e-84
8.27409e-85
2.7602e-85
9.18938e-86
3.05323e-86
1.01242e-86
3.35042e-87
1.10655e-87
3.64737e-88
1.19986e-88
3.93933e-89
1.2908e-89
4.2213e-90
1.37779e-90
4.48818e-91
1.4592e-91
4.73496e-92
1.53348e-92
4.95681e-93
1.59916e-93
5.14929e-94
1.6549e-94
5.30848e-95
1.69958e-95
5.43114e-96
1.73228e-96
5.51476e-97
1.75234e-97
5.55773e-98
1.7594e-98
5.5593e-99
1.75335e-99
5.51968e-100
1.73442e-100
5.43996e-101
1.70309e-101
5.32211e-102
1.66011e-102
5.16888e-103
1.60645e-103
4.98367e-104
1.54329e-104
4.77048e-105
1.47196e-105
4.53367e-106
1.39389e-106
4.27789e-107
1.31057e-107
4.00793e-108
1.22352e-108
3.72852e-109
1.13422e-109
3.44425e-110
)
;

boundaryField
{
    sides
    {
        type            zeroGradient;
    }
    empty
    {
        type            empty;
    }
}


// ************************************************************************* //
