/*--------------------------------*- C++ -*----------------------------------*\
| =========                 |                                                 |
| \\      /  F ield         | OpenFOAM: The Open Source CFD Toolbox           |
|  \\    /   O peration     | Version:  2312                                  |
|   \\  /    A nd           | Website:  www.openfoam.com                      |
|    \\/     M anipulation  |                                                 |
\*---------------------------------------------------------------------------*/
FoamFile
{
    version     2.0;
    format      ascii;
    arch        "LSB;label=32;scalar=64";
    class       volScalarField;
    location    "4.1";
    object      T;
}
// * * * * * * * * * * * * * * * * * * * * * * * * * * * * * * * * * * * * * //

dimensions      [0 0 0 1 0 0 0];

internalField   nonuniform List<scalar> 
1000
(
4.79228e-78
7.41554e-78
1.42007e-77
2.89212e-77
5.97378e-77
1.23674e-76
2.55918e-76
5.28982e-76
1.09202e-75
2.25144e-75
4.63576e-75
9.53264e-75
1.95765e-74
4.01502e-74
8.22372e-74
1.6822e-73
3.43648e-73
7.01097e-73
1.42846e-72
2.90659e-72
5.90642e-72
1.19864e-71
2.42928e-71
4.91688e-71
9.93856e-71
2.00622e-70
4.04441e-70
8.14239e-70
1.63707e-69
3.28703e-69
6.59109e-69
1.31986e-68
2.63947e-68
5.27134e-68
1.05134e-67
2.094e-67
4.1651e-67
8.27348e-67
1.64121e-66
3.25126e-66
6.43208e-66
1.27076e-65
2.50716e-65
4.93984e-65
9.71967e-65
1.90985e-64
3.7476e-64
7.3437e-64
1.43708e-63
2.80838e-63
5.48066e-63
1.06811e-62
2.07874e-62
4.04007e-62
7.84113e-62
1.51974e-61
2.94146e-61
5.68532e-61
1.09735e-60
2.11513e-60
4.07123e-60
7.82548e-60
1.50208e-59
2.8792e-59
5.51118e-59
1.05345e-58
2.01083e-58
3.83292e-58
7.29588e-58
1.38681e-57
2.63238e-57
4.98964e-57
9.44452e-57
1.78517e-56
3.36952e-56
6.35104e-56
1.19539e-55
2.24676e-55
4.2169e-55
7.90339e-55
1.47917e-54
2.76443e-54
5.15914e-54
9.6146e-54
1.78923e-53
3.32493e-53
6.1699e-53
1.14328e-52
2.11548e-52
3.90878e-52
7.21193e-52
1.32873e-51
2.44456e-51
4.49097e-51
8.23859e-51
1.50918e-50
2.76058e-50
5.04236e-50
9.19685e-50
1.675e-49
3.04623e-49
5.53196e-49
1.00315e-48
1.81644e-48
3.2843e-48
5.9297e-48
1.06903e-47
1.92447e-47
3.45938e-47
6.2094e-47
1.11292e-46
1.99179e-46
3.55946e-46
6.35165e-46
1.13175e-45
2.0136e-45
3.57732e-45
6.346e-45
1.12409e-44
1.9882e-44
3.51135e-44
6.19221e-44
1.09037e-43
1.91714e-43
3.36582e-43
5.90039e-43
1.03282e-42
1.80517e-42
3.15038e-42
5.48984e-42
9.55228e-42
1.6596e-41
2.87904e-41
4.98702e-41
8.62545e-41
1.4896e-40
2.56863e-40
4.42263e-40
7.60333e-40
1.30518e-39
2.23708e-39
3.82855e-39
6.54229e-39
1.11626e-38
1.90171e-38
3.2349e-38
5.49436e-38
9.31777e-38
1.57777e-37
2.66756e-37
4.5032e-37
7.59039e-37
1.27745e-36
2.14662e-36
3.60165e-36
6.03366e-36
1.00924e-35
1.68553e-35
2.81069e-35
4.67971e-35
7.77956e-35
1.29128e-34
2.14e-34
3.54108e-34
5.8504e-34
9.65075e-34
1.58951e-33
2.61391e-33
4.29182e-33
7.03587e-33
1.15164e-32
1.88208e-32
3.07102e-32
5.0032e-32
8.1383e-32
1.32172e-31
2.14321e-31
3.46984e-31
5.60883e-31
9.05217e-31
1.45864e-30
2.34673e-30
3.76956e-30
6.04554e-30
9.68039e-30
1.54762e-29
2.4703e-29
3.93682e-29
6.26404e-29
9.95118e-29
1.57836e-28
2.49945e-28
3.9518e-28
6.2381e-28
9.83147e-28
1.54701e-27
2.43037e-27
3.81205e-27
5.96966e-27
9.33354e-27
1.45696e-26
2.27066e-26
3.53312e-26
5.48869e-26
8.51295e-26
1.31823e-25
2.03801e-25
3.14571e-25
4.84766e-25
7.45836e-25
1.14565e-24
1.75695e-24
2.69007e-24
4.1121e-24
6.27566e-24
9.56205e-24
1.45458e-23
2.2091e-23
3.34957e-23
5.07055e-23
7.66326e-23
1.15628e-22
1.74182e-22
2.6196e-22
3.93329e-22
5.89613e-22
8.82401e-22
1.31842e-21
1.96666e-21
2.92881e-21
4.35451e-21
6.46359e-21
9.57841e-21
1.41709e-20
2.09309e-20
3.08645e-20
4.54376e-20
6.67812e-20
9.79884e-20
1.43541e-19
2.09923e-19
3.06495e-19
4.46752e-19
6.50114e-19
9.44477e-19
1.36984e-18
1.98349e-18
2.86724e-18
4.13786e-18
5.96162e-18
8.57488e-18
1.23131e-17
1.76515e-17
2.52621e-17
3.60937e-17
5.14832e-17
7.33118e-17
1.04221e-16
1.47913e-16
2.0957e-16
2.9643e-16
4.18588e-16
5.90093e-16
8.3047e-16
1.1668e-15
1.63658e-15
2.29164e-15
3.20348e-15
4.4706e-15
6.22839e-15
8.66267e-15
1.2028e-14
1.66725e-14
2.30713e-14
3.1872e-14
4.39552e-14
6.05165e-14
8.31766e-14
1.14128e-13
1.5633e-13
2.13776e-13
2.91833e-13
3.97714e-13
5.41089e-13
7.34898e-13
9.96426e-13
1.34872e-12
1.82247e-12
2.45842e-12
3.31062e-12
4.45064e-12
5.973e-12
8.0024e-12
1.0703e-11
1.42905e-11
1.90478e-11
2.53454e-11
3.36673e-11
4.46451e-11
5.91009e-11
7.81033e-11
1.03038e-10
1.35701e-10
1.78411e-10
2.3416e-10
3.06802e-10
4.01288e-10
5.23971e-10
6.82984e-10
8.88723e-10
1.15445e-09
1.49704e-09
1.93797e-09
2.50443e-09
3.2309e-09
4.16092e-09
5.3494e-09
6.8655e-09
8.79608e-09
1.12501e-08
1.4364e-08
1.8308e-08
2.32948e-08
2.95887e-08
3.75182e-08
4.74906e-08
6.00099e-08
7.56984e-08
9.53234e-08
1.19829e-07
1.50374e-07
1.88379e-07
2.35581e-07
2.94101e-07
3.66524e-07
4.55992e-07
5.66317e-07
7.02119e-07
8.68982e-07
1.07364e-06
1.32421e-06
1.63043e-06
2.00399e-06
2.45889e-06
3.01183e-06
3.68274e-06
4.49532e-06
5.47772e-06
6.66327e-06
8.09143e-06
9.80871e-06
1.18699e-05
1.43395e-05
1.7293e-05
2.08189e-05
2.50204e-05
3.00181e-05
3.59519e-05
4.29845e-05
5.13043e-05
6.11291e-05
7.27099e-05
8.63361e-05
0.00010234
0.000121101
0.000143056
0.000168702
0.000198604
0.000233405
0.000273835
0.000320718
0.000374985
0.000437685
0.000509998
0.000593243
0.000688901
0.00079862
0.000924239
0.0010678
0.00123156
0.00141804
0.00162997
0.00187042
0.0021427
0.00245048
0.00279775
0.00318885
0.00362851
0.00412186
0.00467443
0.00529221
0.00598163
0.00674958
0.00760344
0.00855108
0.00960088
0.0107617
0.0120429
0.0134545
0.0150068
0.0167107
0.0185775
0.0206192
0.022848
0.0252765
0.0279178
0.0307853
0.0338926
0.0372535
0.0408821
0.0447925
0.0489989
0.0535152
0.0583554
0.0635331
0.0690618
0.0749544
0.0812231
0.0878798
0.0949353
0.1024
0.110283
0.118592
0.127334
0.136515
0.146139
0.156209
0.166726
0.177689
0.189097
0.200946
0.213229
0.22594
0.239068
0.252604
0.266532
0.280839
0.295508
0.31052
0.325854
0.341488
0.3574
0.373564
0.389953
0.406541
0.423297
0.440194
0.4572
0.474285
0.491417
0.508565
0.525696
0.54278
0.559784
0.576678
0.593431
0.610014
0.626398
0.642555
0.658459
0.674084
0.689407
0.704405
0.719058
0.733346
0.747253
0.760763
0.773861
0.786537
0.79878
0.810582
0.821936
0.832836
0.843281
0.853268
0.862796
0.871867
0.880484
0.888649
0.896368
0.903647
0.91049
0.916906
0.922903
0.928488
0.933669
0.938456
0.942856
0.946879
0.950533
0.953826
0.956765
0.959358
0.961611
0.963531
0.965123
0.96639
0.967338
0.967968
0.968283
0.968283
0.967968
0.967338
0.96639
0.965123
0.963531
0.961611
0.959358
0.956765
0.953826
0.950533
0.946879
0.942856
0.938456
0.933669
0.928488
0.922903
0.916906
0.91049
0.903647
0.896368
0.888649
0.880484
0.871867
0.862796
0.853268
0.843281
0.832836
0.821936
0.810582
0.79878
0.786537
0.773861
0.760763
0.747253
0.733346
0.719058
0.704405
0.689407
0.674084
0.658459
0.642555
0.626398
0.610014
0.593431
0.576678
0.559784
0.54278
0.525696
0.508565
0.491417
0.474285
0.4572
0.440194
0.423297
0.406541
0.389953
0.373564
0.3574
0.341488
0.325854
0.31052
0.295508
0.280839
0.266532
0.252604
0.239068
0.22594
0.213229
0.200946
0.189097
0.177689
0.166726
0.156209
0.146139
0.136515
0.127334
0.118592
0.110283
0.1024
0.0949353
0.0878798
0.0812231
0.0749544
0.0690618
0.0635331
0.0583554
0.0535152
0.0489989
0.0447925
0.0408821
0.0372535
0.0338926
0.0307853
0.0279178
0.0252765
0.022848
0.0206192
0.0185775
0.0167107
0.0150068
0.0134545
0.0120429
0.0107617
0.00960088
0.00855108
0.00760344
0.00674958
0.00598163
0.00529221
0.00467443
0.00412186
0.00362851
0.00318885
0.00279775
0.00245048
0.0021427
0.00187042
0.00162997
0.00141804
0.00123156
0.0010678
0.000924239
0.00079862
0.000688901
0.000593243
0.000509998
0.000437685
0.000374985
0.000320718
0.000273835
0.000233405
0.000198604
0.000168702
0.000143056
0.000121101
0.00010234
8.63361e-05
7.27099e-05
6.11291e-05
5.13043e-05
4.29845e-05
3.59519e-05
3.00181e-05
2.50204e-05
2.08189e-05
1.7293e-05
1.43395e-05
1.18699e-05
9.80871e-06
8.09143e-06
6.66327e-06
5.47772e-06
4.49532e-06
3.68274e-06
3.01183e-06
2.45889e-06
2.00399e-06
1.63043e-06
1.32421e-06
1.07364e-06
8.68982e-07
7.02119e-07
5.66317e-07
4.55992e-07
3.66524e-07
2.94101e-07
2.35581e-07
1.88379e-07
1.50374e-07
1.19829e-07
9.53234e-08
7.56984e-08
6.00099e-08
4.74906e-08
3.75182e-08
2.95887e-08
2.32948e-08
1.8308e-08
1.4364e-08
1.12501e-08
8.79608e-09
6.8655e-09
5.3494e-09
4.16092e-09
3.2309e-09
2.50443e-09
1.93797e-09
1.49704e-09
1.15445e-09
8.88723e-10
6.82984e-10
5.23971e-10
4.01288e-10
3.06802e-10
2.3416e-10
1.78411e-10
1.35701e-10
1.03038e-10
7.81033e-11
5.91009e-11
4.46451e-11
3.36673e-11
2.53454e-11
1.90478e-11
1.42905e-11
1.0703e-11
8.0024e-12
5.973e-12
4.45064e-12
3.31062e-12
2.45842e-12
1.82247e-12
1.34872e-12
9.96426e-13
7.34898e-13
5.41089e-13
3.97714e-13
2.91833e-13
2.13776e-13
1.5633e-13
1.14128e-13
8.31766e-14
6.05165e-14
4.39552e-14
3.1872e-14
2.30713e-14
1.66725e-14
1.2028e-14
8.66267e-15
6.22839e-15
4.4706e-15
3.20348e-15
2.29164e-15
1.63658e-15
1.1668e-15
8.3047e-16
5.90093e-16
4.18588e-16
2.9643e-16
2.0957e-16
1.47913e-16
1.04221e-16
7.33118e-17
5.14832e-17
3.60937e-17
2.52621e-17
1.76515e-17
1.23131e-17
8.57488e-18
5.96162e-18
4.13786e-18
2.86724e-18
1.98349e-18
1.36984e-18
9.44477e-19
6.50114e-19
4.46752e-19
3.06495e-19
2.09923e-19
1.43541e-19
9.79884e-20
6.67812e-20
4.54376e-20
3.08645e-20
2.09309e-20
1.41709e-20
9.57841e-21
6.46359e-21
4.35451e-21
2.92881e-21
1.96666e-21
1.31842e-21
8.82401e-22
5.89613e-22
3.93329e-22
2.6196e-22
1.74182e-22
1.15628e-22
7.66326e-23
5.07055e-23
3.34957e-23
2.2091e-23
1.45458e-23
9.56205e-24
6.27566e-24
4.1121e-24
2.69007e-24
1.75695e-24
1.14565e-24
7.45836e-25
4.84766e-25
3.14571e-25
2.03801e-25
1.31823e-25
8.51295e-26
5.48869e-26
3.53312e-26
2.27066e-26
1.45696e-26
9.33354e-27
5.96966e-27
3.81205e-27
2.43037e-27
1.54701e-27
9.83147e-28
6.2381e-28
3.9518e-28
2.49945e-28
1.57836e-28
9.95118e-29
6.26404e-29
3.93682e-29
2.4703e-29
1.54762e-29
9.68039e-30
6.04554e-30
3.76956e-30
2.34673e-30
1.45864e-30
9.05217e-31
5.60883e-31
3.46984e-31
2.14321e-31
1.32172e-31
8.1383e-32
5.0032e-32
3.07102e-32
1.88208e-32
1.15164e-32
7.03587e-33
4.29182e-33
2.61391e-33
1.58951e-33
9.65075e-34
5.8504e-34
3.54108e-34
2.14e-34
1.29128e-34
7.77956e-35
4.67971e-35
2.81069e-35
1.68553e-35
1.00924e-35
6.03366e-36
3.60165e-36
2.14662e-36
1.27745e-36
7.59039e-37
4.5032e-37
2.66756e-37
1.57777e-37
9.31777e-38
5.49436e-38
3.2349e-38
1.90171e-38
1.11626e-38
6.54229e-39
3.82855e-39
2.23708e-39
1.30518e-39
7.60333e-40
4.42263e-40
2.56863e-40
1.4896e-40
8.62545e-41
4.98702e-41
2.87904e-41
1.6596e-41
9.55228e-42
5.48984e-42
3.15038e-42
1.80517e-42
1.03282e-42
5.90039e-43
3.36582e-43
1.91714e-43
1.09037e-43
6.19221e-44
3.51135e-44
1.9882e-44
1.12409e-44
6.346e-45
3.57732e-45
2.0136e-45
1.13175e-45
6.35165e-46
3.55946e-46
1.99179e-46
1.11292e-46
6.2094e-47
3.45938e-47
1.92447e-47
1.06903e-47
5.9297e-48
3.2843e-48
1.81644e-48
1.00315e-48
5.53196e-49
3.04623e-49
1.675e-49
9.19685e-50
5.04236e-50
2.76058e-50
1.50918e-50
8.23859e-51
4.49097e-51
2.44456e-51
1.32873e-51
7.21193e-52
3.90878e-52
2.11548e-52
1.14328e-52
6.1699e-53
3.32493e-53
1.78923e-53
9.6146e-54
5.15914e-54
2.76443e-54
1.47917e-54
7.90339e-55
4.2169e-55
2.24676e-55
1.19539e-55
6.35104e-56
3.36952e-56
1.78517e-56
9.44452e-57
4.98964e-57
2.63238e-57
1.38681e-57
7.29588e-58
3.83292e-58
2.01083e-58
1.05345e-58
5.51118e-59
2.8792e-59
1.50208e-59
7.82548e-60
4.07123e-60
2.11513e-60
1.09735e-60
5.68532e-61
2.94146e-61
1.51974e-61
7.84113e-62
4.04007e-62
2.07874e-62
1.06811e-62
5.48066e-63
2.80838e-63
1.43708e-63
7.3437e-64
3.7476e-64
1.90985e-64
9.71967e-65
4.93984e-65
2.50716e-65
1.27076e-65
6.43208e-66
3.25126e-66
1.64121e-66
8.27348e-67
4.1651e-67
2.094e-67
1.05134e-67
5.27134e-68
2.63947e-68
1.31986e-68
6.59109e-69
3.28703e-69
1.63707e-69
8.14239e-70
4.04441e-70
2.00622e-70
9.93856e-71
4.91688e-71
2.42928e-71
1.19864e-71
5.90642e-72
2.90659e-72
1.42846e-72
7.01097e-73
3.43648e-73
1.6822e-73
8.22372e-74
4.01502e-74
1.95765e-74
9.53264e-75
4.63576e-75
2.25144e-75
1.09202e-75
5.28982e-76
2.55918e-76
1.23674e-76
5.97378e-77
2.89212e-77
1.42007e-77
7.41554e-78
4.79228e-78
)
;

boundaryField
{
    sides
    {
        type            zeroGradient;
    }
    empty
    {
        type            empty;
    }
}


// ************************************************************************* //
