/*--------------------------------*- C++ -*----------------------------------*\
| =========                 |                                                 |
| \\      /  F ield         | OpenFOAM: The Open Source CFD Toolbox           |
|  \\    /   O peration     | Version:  2312                                  |
|   \\  /    A nd           | Website:  www.openfoam.com                      |
|    \\/     M anipulation  |                                                 |
\*---------------------------------------------------------------------------*/
FoamFile
{
    version     2.0;
    format      ascii;
    arch        "LSB;label=32;scalar=64";
    class       volScalarField;
    location    "4.9";
    object      T;
}
// * * * * * * * * * * * * * * * * * * * * * * * * * * * * * * * * * * * * * //

dimensions      [0 0 0 1 0 0 0];

internalField   nonuniform List<scalar> 
1000
(
5.6231e-06
5.63012e-06
5.64943e-06
5.68107e-06
5.72509e-06
5.78157e-06
5.85062e-06
5.93236e-06
6.02692e-06
6.13449e-06
6.25525e-06
6.38941e-06
6.53721e-06
6.69891e-06
6.8748e-06
7.06519e-06
7.27042e-06
7.49083e-06
7.72682e-06
7.9788e-06
8.24721e-06
8.53251e-06
8.8352e-06
9.1558e-06
9.49486e-06
9.85297e-06
1.02307e-05
1.06288e-05
1.10478e-05
1.14886e-05
1.19517e-05
1.24381e-05
1.29485e-05
1.34837e-05
1.40447e-05
1.46325e-05
1.52479e-05
1.58919e-05
1.65657e-05
1.72703e-05
1.80069e-05
1.87766e-05
1.95807e-05
2.04205e-05
2.12973e-05
2.22125e-05
2.31675e-05
2.41639e-05
2.52032e-05
2.6287e-05
2.74171e-05
2.8595e-05
2.98227e-05
3.1102e-05
3.24348e-05
3.38233e-05
3.52693e-05
3.67752e-05
3.83431e-05
3.99754e-05
4.16744e-05
4.34427e-05
4.52828e-05
4.71974e-05
4.91892e-05
5.12612e-05
5.34161e-05
5.56571e-05
5.79874e-05
6.04102e-05
6.29288e-05
6.55469e-05
6.82678e-05
7.10955e-05
7.40337e-05
7.70865e-05
8.02578e-05
8.35521e-05
8.69735e-05
9.05268e-05
9.42165e-05
9.80474e-05
0.000102025
0.000106153
0.000110439
0.000114886
0.000119501
0.00012429
0.000129258
0.000134413
0.000139759
0.000145304
0.000151055
0.000157019
0.000163202
0.000169612
0.000176257
0.000183145
0.000190284
0.000197682
0.000205347
0.00021329
0.000221518
0.000230041
0.00023887
0.000248013
0.000257481
0.000267285
0.000277435
0.000287943
0.000298819
0.000310077
0.000321728
0.000333784
0.000346258
0.000359164
0.000372515
0.000386324
0.000400607
0.000415377
0.00043065
0.000446442
0.000462768
0.000479644
0.000497088
0.000515116
0.000533746
0.000552997
0.000572886
0.000593434
0.000614658
0.000636581
0.000659221
0.0006826
0.00070674
0.000731663
0.000757392
0.000783949
0.000811359
0.000839646
0.000868836
0.000898953
0.000930024
0.000962076
0.000995136
0.00102923
0.00106439
0.00110065
0.00113803
0.00117657
0.0012163
0.00125724
0.00129944
0.00134292
0.00138773
0.00143389
0.00148144
0.00153043
0.00158088
0.00163283
0.00168633
0.00174142
0.00179813
0.00185651
0.0019166
0.00197844
0.00204208
0.00210756
0.00217494
0.00224425
0.00231555
0.00238888
0.00246429
0.00254185
0.00262159
0.00270357
0.00278784
0.00287447
0.0029635
0.003055
0.00314901
0.00324561
0.00334485
0.00344679
0.00355149
0.00365903
0.00376945
0.00388284
0.00399925
0.00411875
0.00424142
0.00436732
0.00449652
0.00462911
0.00476514
0.0049047
0.00504786
0.00519469
0.00534529
0.00549972
0.00565807
0.00582042
0.00598686
0.00615746
0.00633231
0.0065115
0.00669512
0.00688326
0.00707601
0.00727345
0.00747568
0.0076828
0.0078949
0.00811208
0.00833443
0.00856206
0.00879505
0.00903353
0.00927757
0.0095273
0.00978281
0.0100442
0.0103116
0.0105851
0.0108648
0.0111508
0.0114433
0.0117423
0.012048
0.0123604
0.0126798
0.0130061
0.0133396
0.0136803
0.0140283
0.0143838
0.014747
0.0151178
0.0154965
0.0158832
0.0162779
0.0166809
0.0170922
0.017512
0.0179403
0.0183774
0.0188234
0.0192783
0.0197423
0.0202155
0.0206982
0.0211903
0.021692
0.0222036
0.022725
0.0232564
0.0237979
0.0243498
0.0249121
0.0254849
0.0260684
0.0266628
0.0272681
0.0278844
0.028512
0.0291509
0.0298013
0.0304633
0.031137
0.0318226
0.0325202
0.0332299
0.0339519
0.0346863
0.0354331
0.0361926
0.0369648
0.03775
0.0385481
0.0393594
0.0401839
0.0410217
0.0418731
0.0427381
0.0436167
0.0445092
0.0454157
0.0463362
0.0472708
0.0482197
0.049183
0.0501608
0.0511531
0.0521602
0.0531819
0.0542186
0.0552702
0.0563368
0.0574186
0.0585155
0.0596278
0.0607555
0.0618985
0.0630572
0.0642313
0.0654212
0.0666268
0.0678481
0.0690853
0.0703383
0.0716073
0.0728923
0.0741932
0.0755103
0.0768434
0.0781927
0.0795581
0.0809396
0.0823374
0.0837513
0.0851815
0.0866279
0.0880904
0.0895692
0.0910642
0.0925754
0.0941027
0.0956462
0.0972058
0.0987814
0.100373
0.101981
0.103604
0.105244
0.106899
0.10857
0.110257
0.11196
0.113678
0.115411
0.11716
0.118924
0.120703
0.122497
0.124306
0.12613
0.127969
0.129822
0.131689
0.133571
0.135467
0.137376
0.1393
0.141237
0.143188
0.145151
0.147128
0.149118
0.15112
0.153135
0.155161
0.1572
0.159251
0.161313
0.163387
0.165471
0.167566
0.169672
0.171788
0.173914
0.17605
0.178195
0.18035
0.182513
0.184685
0.186865
0.189053
0.191248
0.193451
0.19566
0.197877
0.200099
0.202328
0.204562
0.206801
0.209045
0.211293
0.213546
0.215802
0.218061
0.220324
0.222589
0.224856
0.227125
0.229395
0.231666
0.233937
0.236209
0.23848
0.24075
0.243019
0.245287
0.247552
0.249815
0.252074
0.254331
0.256583
0.258831
0.261074
0.263311
0.265543
0.267769
0.269988
0.2722
0.274404
0.2766
0.278787
0.280966
0.283134
0.285293
0.287441
0.289578
0.291704
0.293817
0.295918
0.298006
0.300081
0.302142
0.304188
0.30622
0.308236
0.310236
0.31222
0.314187
0.316137
0.318069
0.319983
0.321878
0.323754
0.32561
0.327447
0.329262
0.331057
0.33283
0.334582
0.336311
0.338017
0.339701
0.34136
0.342996
0.344607
0.346193
0.347753
0.349288
0.350797
0.35228
0.353735
0.355164
0.356564
0.357937
0.359281
0.360596
0.361882
0.363139
0.364366
0.365563
0.36673
0.367865
0.36897
0.370043
0.371085
0.372094
0.373072
0.374017
0.374929
0.375808
0.376654
0.377467
0.378246
0.378991
0.379701
0.380378
0.38102
0.381627
0.3822
0.382737
0.383239
0.383707
0.384138
0.384534
0.384895
0.385219
0.385508
0.385761
0.385978
0.386159
0.386303
0.386412
0.386484
0.386521
0.386521
0.386484
0.386412
0.386303
0.386159
0.385978
0.385761
0.385508
0.385219
0.384895
0.384534
0.384138
0.383707
0.383239
0.382737
0.3822
0.381627
0.38102
0.380378
0.379701
0.378991
0.378246
0.377467
0.376654
0.375808
0.374929
0.374017
0.373072
0.372094
0.371085
0.370043
0.36897
0.367865
0.36673
0.365563
0.364366
0.363139
0.361882
0.360596
0.359281
0.357937
0.356564
0.355164
0.353735
0.35228
0.350797
0.349288
0.347753
0.346193
0.344607
0.342996
0.34136
0.339701
0.338017
0.336311
0.334582
0.33283
0.331057
0.329262
0.327447
0.32561
0.323754
0.321878
0.319983
0.318069
0.316137
0.314187
0.31222
0.310236
0.308236
0.30622
0.304188
0.302142
0.300081
0.298006
0.295918
0.293817
0.291704
0.289578
0.287441
0.285293
0.283134
0.280966
0.278787
0.2766
0.274404
0.2722
0.269988
0.267769
0.265543
0.263311
0.261074
0.258831
0.256583
0.254331
0.252074
0.249815
0.247552
0.245287
0.243019
0.24075
0.23848
0.236209
0.233937
0.231666
0.229395
0.227125
0.224856
0.222589
0.220324
0.218061
0.215802
0.213546
0.211293
0.209045
0.206801
0.204562
0.202328
0.200099
0.197877
0.19566
0.193451
0.191248
0.189053
0.186865
0.184685
0.182513
0.18035
0.178195
0.17605
0.173914
0.171788
0.169672
0.167566
0.165471
0.163387
0.161313
0.159251
0.1572
0.155161
0.153135
0.15112
0.149118
0.147128
0.145151
0.143188
0.141237
0.1393
0.137376
0.135467
0.133571
0.131689
0.129822
0.127969
0.12613
0.124306
0.122497
0.120703
0.118924
0.11716
0.115411
0.113678
0.11196
0.110257
0.10857
0.106899
0.105244
0.103604
0.101981
0.100373
0.0987814
0.0972058
0.0956462
0.0941027
0.0925754
0.0910642
0.0895692
0.0880904
0.0866279
0.0851815
0.0837513
0.0823374
0.0809396
0.0795581
0.0781927
0.0768434
0.0755103
0.0741932
0.0728923
0.0716073
0.0703383
0.0690853
0.0678481
0.0666268
0.0654212
0.0642313
0.0630572
0.0618985
0.0607555
0.0596278
0.0585155
0.0574186
0.0563368
0.0552702
0.0542186
0.0531819
0.0521602
0.0511531
0.0501608
0.049183
0.0482197
0.0472708
0.0463362
0.0454157
0.0445092
0.0436167
0.0427381
0.0418731
0.0410217
0.0401839
0.0393594
0.0385481
0.03775
0.0369648
0.0361926
0.0354331
0.0346863
0.0339519
0.0332299
0.0325202
0.0318226
0.031137
0.0304633
0.0298013
0.0291509
0.028512
0.0278844
0.0272681
0.0266628
0.0260684
0.0254849
0.0249121
0.0243498
0.0237979
0.0232564
0.022725
0.0222036
0.021692
0.0211903
0.0206982
0.0202155
0.0197423
0.0192783
0.0188234
0.0183774
0.0179403
0.017512
0.0170922
0.0166809
0.0162779
0.0158832
0.0154965
0.0151178
0.014747
0.0143838
0.0140283
0.0136803
0.0133396
0.0130061
0.0126798
0.0123604
0.012048
0.0117423
0.0114433
0.0111508
0.0108648
0.0105851
0.0103116
0.0100442
0.00978281
0.0095273
0.00927757
0.00903353
0.00879505
0.00856206
0.00833443
0.00811208
0.0078949
0.0076828
0.00747568
0.00727345
0.00707601
0.00688326
0.00669512
0.0065115
0.00633231
0.00615746
0.00598686
0.00582042
0.00565807
0.00549972
0.00534529
0.00519469
0.00504786
0.0049047
0.00476514
0.00462911
0.00449652
0.00436732
0.00424142
0.00411875
0.00399925
0.00388284
0.00376945
0.00365903
0.00355149
0.00344679
0.00334485
0.00324561
0.00314901
0.003055
0.0029635
0.00287447
0.00278784
0.00270357
0.00262159
0.00254185
0.00246429
0.00238888
0.00231555
0.00224425
0.00217494
0.00210756
0.00204208
0.00197844
0.0019166
0.00185651
0.00179813
0.00174142
0.00168633
0.00163283
0.00158088
0.00153043
0.00148144
0.00143389
0.00138773
0.00134292
0.00129944
0.00125724
0.0012163
0.00117657
0.00113803
0.00110065
0.00106439
0.00102923
0.000995136
0.000962076
0.000930024
0.000898953
0.000868836
0.000839646
0.000811359
0.000783949
0.000757392
0.000731663
0.00070674
0.0006826
0.000659221
0.000636581
0.000614658
0.000593434
0.000572886
0.000552997
0.000533746
0.000515116
0.000497088
0.000479644
0.000462768
0.000446442
0.00043065
0.000415377
0.000400607
0.000386324
0.000372515
0.000359164
0.000346258
0.000333784
0.000321728
0.000310077
0.000298819
0.000287943
0.000277435
0.000267285
0.000257481
0.000248013
0.00023887
0.000230041
0.000221518
0.00021329
0.000205347
0.000197682
0.000190284
0.000183145
0.000176257
0.000169612
0.000163202
0.000157019
0.000151055
0.000145304
0.000139759
0.000134413
0.000129258
0.00012429
0.000119501
0.000114886
0.000110439
0.000106153
0.000102025
9.80474e-05
9.42165e-05
9.05268e-05
8.69735e-05
8.35521e-05
8.02578e-05
7.70865e-05
7.40337e-05
7.10955e-05
6.82678e-05
6.55469e-05
6.29288e-05
6.04102e-05
5.79874e-05
5.56571e-05
5.34161e-05
5.12612e-05
4.91892e-05
4.71974e-05
4.52828e-05
4.34427e-05
4.16744e-05
3.99754e-05
3.83431e-05
3.67752e-05
3.52693e-05
3.38233e-05
3.24348e-05
3.1102e-05
2.98227e-05
2.8595e-05
2.74171e-05
2.6287e-05
2.52032e-05
2.41639e-05
2.31675e-05
2.22125e-05
2.12973e-05
2.04205e-05
1.95807e-05
1.87766e-05
1.80069e-05
1.72703e-05
1.65657e-05
1.58919e-05
1.52479e-05
1.46325e-05
1.40447e-05
1.34837e-05
1.29485e-05
1.24381e-05
1.19517e-05
1.14886e-05
1.10478e-05
1.06288e-05
1.02307e-05
9.85297e-06
9.49486e-06
9.1558e-06
8.8352e-06
8.53251e-06
8.24721e-06
7.9788e-06
7.72682e-06
7.49083e-06
7.27042e-06
7.06519e-06
6.8748e-06
6.69891e-06
6.53721e-06
6.38941e-06
6.25525e-06
6.13449e-06
6.02692e-06
5.93236e-06
5.85062e-06
5.78157e-06
5.72509e-06
5.68107e-06
5.64943e-06
5.63012e-06
5.6231e-06
)
;

boundaryField
{
    sides
    {
        type            zeroGradient;
    }
    empty
    {
        type            empty;
    }
}


// ************************************************************************* //
