/*--------------------------------*- C++ -*----------------------------------*\
| =========                 |                                                 |
| \\      /  F ield         | OpenFOAM: The Open Source CFD Toolbox           |
|  \\    /   O peration     | Version:  2312                                  |
|   \\  /    A nd           | Website:  www.openfoam.com                      |
|    \\/     M anipulation  |                                                 |
\*---------------------------------------------------------------------------*/
FoamFile
{
    version     2.0;
    format      ascii;
    arch        "LSB;label=32;scalar=64";
    class       volScalarField;
    location    "0.9";
    object      T;
}
// * * * * * * * * * * * * * * * * * * * * * * * * * * * * * * * * * * * * * //

dimensions      [0 0 0 1 0 0 0];

internalField   nonuniform List<scalar> 
1000
(
0
0
0
0
0
0
0
0
0
0
0
0
0
0
0
0
0
0
0
0
0
0
0
0
0
0
0
0
0
0
0
0
0
0
0
0
0
0
0
0
0
0
0
0
0
0
0
0
0
0
0
0
0
0
0
0
0
0
0
0
0
0
0
0
0
0
0
0
0
0
0
0
0
0
0
0
0
0
0
0
0
0
0
0
0
0
0
0
0
0
0
0
0
0
0
0
0
0
0
0
0
0
0
0
0
0
0
0
0
0
0
0
0
0
0
0
0
0
0
0
0
0
0
0
0
0
0
0
0
0
0
0
0
0
0
0
0
0
0
0
0
0
0
0
0
0
0
0
0
0
0
0
0
0
0
0
0
0
0
0
0
0
0
0
0
0
0
0
0
0
0
0
0
-4.94066e-324
2.96439e-323
-4.94066e-324
2.96439e-323
-4.94066e-324
2.96439e-323
-4.94066e-324
2.96439e-323
-4.94066e-324
2.96439e-323
-4.94066e-324
2.96439e-323
-4.94066e-324
2.96439e-323
-4.94066e-324
2.96439e-323
-4.94066e-324
2.96439e-323
-4.94066e-324
2.96439e-323
-4.94066e-324
2.96439e-323
-4.94066e-324
2.96439e-323
-4.94066e-324
2.96439e-323
-1.43279e-322
2.02567e-321
-2.59187e-320
3.33697e-319
-4.29297e-318
5.52292e-317
-7.10526e-316
9.14095e-315
-1.17599e-313
1.51291e-312
-1.94637e-311
2.50401e-310
-3.22142e-309
4.14437e-308
-5.33175e-307
6.85932e-306
-8.82455e-305
1.13528e-303
-1.46055e-302
1.879e-301
-2.41734e-300
3.10992e-299
-4.00092e-298
5.1472e-297
-6.6219e-296
8.5191e-295
-1.09599e-293
1.40999e-292
-1.81396e-291
2.33367e-290
-3.00227e-289
3.86243e-288
-4.96904e-287
6.39269e-286
-8.22422e-285
1.05805e-283
-1.36119e-282
1.75117e-281
-2.25289e-280
2.89835e-279
-3.72874e-278
4.79704e-277
-6.17141e-276
7.93955e-275
-1.02143e-273
1.31407e-272
-1.69056e-271
2.17491e-270
-2.79803e-269
3.59968e-268
-4.631e-267
5.9578e-266
-7.66473e-265
9.86071e-264
-1.26858e-262
1.63204e-261
-2.09963e-260
2.70118e-259
-3.47508e-258
4.4707e-257
-5.75158e-256
7.39943e-255
-9.5194e-254
1.22467e-252
-1.57555e-251
2.02695e-250
-2.60768e-249
3.35479e-248
-4.31595e-247
5.55249e-246
-7.14331e-245
9.1899e-244
-1.18228e-242
1.52101e-241
-1.95679e-240
2.51742e-239
-3.23867e-238
4.16656e-237
-5.3603e-236
6.89605e-235
-8.8718e-234
1.14136e-232
-1.46837e-231
1.88906e-230
-2.43028e-229
3.12657e-228
-4.02234e-227
5.17476e-226
-6.65735e-225
8.56471e-224
-1.10185e-222
1.41754e-221
-1.82367e-220
2.34616e-219
-3.01835e-218
3.88311e-217
-4.99564e-216
6.42692e-215
-8.26826e-214
1.06371e-212
-1.36847e-211
1.76055e-210
-2.26495e-209
2.91387e-208
-3.74871e-207
4.82273e-206
-6.20446e-205
7.98206e-204
-1.0269e-202
1.32111e-201
-1.69961e-200
2.18655e-199
-2.81301e-198
3.61895e-197
-4.65579e-196
5.9897e-195
-7.70577e-194
9.91351e-193
-1.27538e-191
1.64078e-190
-2.11087e-189
2.71564e-188
-3.49368e-187
4.49464e-186
-5.78237e-185
7.43905e-184
-9.57037e-183
1.23123e-181
-1.58398e-180
2.0378e-179
-2.62164e-178
3.37275e-177
-4.33906e-176
5.58222e-175
-7.18155e-174
9.2391e-173
-1.18861e-171
1.52916e-170
-1.96727e-169
2.5309e-168
-3.25601e-167
4.18887e-166
-5.389e-165
6.93297e-164
-8.9193e-163
1.14747e-161
-1.47623e-160
1.89917e-159
-2.44329e-158
3.14331e-157
-4.04388e-156
5.20247e-155
-6.693e-154
8.61057e-153
-1.10775e-151
1.42513e-150
-1.83344e-149
2.35872e-148
-3.03451e-147
3.90391e-146
-5.02239e-145
6.46133e-144
-8.31253e-143
1.06941e-141
-1.3758e-140
1.76997e-139
-2.27708e-138
2.92947e-137
-3.76878e-136
4.84855e-135
-6.23768e-134
8.0248e-133
-1.03239e-131
1.32818e-130
-1.70871e-129
2.19826e-128
-2.82807e-127
3.63833e-126
-4.68072e-125
6.02177e-124
-7.74703e-123
9.96659e-122
-1.28221e-120
1.64956e-119
-2.12217e-118
2.73018e-117
-3.51239e-116
4.5187e-115
-5.81333e-114
7.47888e-113
-9.62161e-112
1.23782e-110
-1.59247e-109
2.04871e-108
-2.63568e-107
3.39081e-106
-4.3623e-105
5.61211e-104
-7.22001e-103
9.28857e-102
-1.19498e-100
1.53734e-99
-1.9778e-98
2.54445e-97
-3.27344e-96
4.2113e-95
-5.41786e-94
6.97009e-93
-8.96706e-92
1.15362e-90
-1.48413e-89
1.90934e-88
-2.45638e-87
3.16014e-86
-4.06553e-85
5.23032e-84
-6.72883e-83
8.65667e-82
-1.11368e-80
1.43276e-79
-1.84325e-78
2.37135e-77
-3.05075e-76
3.92481e-75
-5.04928e-74
6.49592e-73
-8.35703e-72
1.07514e-70
-1.38317e-69
1.77945e-68
-2.28927e-67
2.94516e-66
-3.78896e-65
4.87451e-64
-6.27108e-63
8.06777e-62
-1.03792e-60
1.33529e-59
-1.71786e-58
2.21003e-57
-2.84321e-56
3.65781e-55
-4.70578e-54
6.05401e-53
-7.78851e-52
1.002e-50
-1.28907e-49
-4.74053e-50
5.94621e-48
-2.51462e-47
-2.45245e-46
2.12278e-45
1.04105e-44
-9.88213e-44
-6.563e-42
-1.81558e-40
-2.01627e-40
4.53614e-39
1.49655e-37
3.71607e-36
8.0469e-35
1.55302e-33
2.70035e-32
4.26533e-31
6.16241e-30
8.19098e-29
1.00664e-27
1.14878e-26
1.22199e-25
1.21565e-24
1.13431e-23
9.95358e-23
8.23316e-22
6.4329e-21
4.7569e-20
3.33475e-19
2.21971e-18
1.40487e-17
8.4652e-17
4.86192e-16
2.66444e-15
1.39461e-14
6.9779e-14
3.34018e-13
1.53074e-12
6.72048e-12
2.82827e-11
1.14154e-10
4.42087e-10
1.64343e-09
5.86641e-09
2.01141e-08
6.62588e-08
2.09742e-07
6.38099e-07
1.86592e-06
5.24463e-06
1.41694e-05
3.6794e-05
9.18198e-05
0.000220168
0.000507141
0.00112184
0.00238236
0.00485477
0.00948855
0.0177769
0.0319047
0.0548135
0.0900771
0.141472
0.212167
0.30357
0.414063
0.538065
0.665962
0.785334
0.883519
0.95115
0.986407
0.998022
0.99989
0.999998
1
1
1
1
1
1
1
1
1
1
1
1
1
1
1
1
1
1
1
1
1
1
1
1
1
1
1
1
1
1
1
1
1
1
1
1
1
1
1
1
1
1
1
1
1
1
1
1
1
1
1
1
1
1
1
1
1
1
1
1
1
1
1
1
1
1
1
1
1
1
1
0.999999
0.999998
0.999995
0.999986
0.999963
0.999908
0.999779
0.999492
0.998876
0.997613
0.995136
0.990495
0.982196
0.968052
0.945121
0.909829
0.858401
0.787672
0.696241
0.585729
0.461726
0.333848
0.214512
0.116374
0.0487907
0.0135709
0.00197375
0.000110101
1.69269e-06
5.32208e-09
2.68419e-12
2.40208e-16
2.11612e-20
1.83952e-24
1.58214e-28
1.35024e-32
1.14664e-36
9.71366e-41
8.22501e-45
6.97042e-49
5.9161e-53
5.02938e-57
4.28139e-61
3.64803e-65
3.10985e-69
2.65132e-73
2.26005e-77
1.92597e-81
1.64076e-85
1.3974e-89
1.18989e-93
1.01307e-97
8.62473e-102
7.34254e-106
6.25104e-110
5.32189e-114
4.53093e-118
3.85754e-122
3.2842e-126
2.79604e-130
2.38038e-134
2.02646e-138
1.72511e-142
1.46853e-146
1.25007e-150
1.06409e-154
9.05755e-159
7.70959e-163
6.56206e-167
5.58518e-171
4.75359e-175
4.04569e-179
3.44311e-183
2.93018e-187
2.49358e-191
2.12196e-195
1.80566e-199
1.53646e-203
1.30735e-207
1.11236e-211
9.4643e-216
8.05222e-220
6.85061e-224
5.82813e-228
4.9581e-232
4.21783e-236
3.58797e-240
3.05208e-244
2.59615e-248
2.20826e-252
1.87827e-256
1.59755e-260
1.35874e-264
1.1556e-268
9.82796e-273
8.3581e-277
7.10785e-281
6.04444e-285
5.13997e-289
4.37071e-293
3.71646e-297
3.16004e-301
2.68685e-305
2.28444e-309
1.94223e-313
1.65123e-317
1.37844e-321
0
0
0
0
0
0
0
0
0
0
0
0
0
0
0
0
0
0
0
0
0
0
0
0
0
0
0
0
0
0
0
0
0
0
0
0
0
0
0
0
0
0
0
0
0
0
0
0
0
0
0
0
0
0
0
0
0
0
0
0
0
0
0
0
0
0
0
0
0
0
0
0
0
0
0
0
0
0
0
0
0
0
0
0
0
0
0
0
0
0
0
0
0
0
0
0
0
0
0
0
0
0
0
0
0
0
0
0
0
0
0
0
0
0
0
0
0
0
0
0
0
0
0
0
0
0
0
0
0
0
0
0
0
0
0
0
0
0
0
0
0
0
0
0
0
0
0
0
0
0
0
0
0
0
0
0
0
0
0
0
0
0
0
0
0
0
0
0
0
0
0
0
0
0
0
0
0
0
0
0
0
0
0
0
0
0
0
0
0
0
0
0
0
0
0
0
0
0
0
0
0
0
0
0
0
0
0
0
0
0
0
0
0
0
0
0
0
0
0
0
0
0
0
0
0
0
0
0
0
0
0
0
0
0
0
0
0
0
0
0
0
0
0
0
0
0
0
0
0
0
0
0
0
0
0
0
0
0
0
0
0
0
0
0
0
0
0
0
0
0
0
0
0
0
0
0
0
0
0
0
0
0
0
0
0
0
0
0
0
0
0
0
0
0
0
0
0
0
0
0
)
;

boundaryField
{
    sides
    {
        type            zeroGradient;
    }
    empty
    {
        type            empty;
    }
}


// ************************************************************************* //
