/*--------------------------------*- C++ -*----------------------------------*\
| =========                 |                                                 |
| \\      /  F ield         | OpenFOAM: The Open Source CFD Toolbox           |
|  \\    /   O peration     | Version:  2312                                  |
|   \\  /    A nd           | Website:  www.openfoam.com                      |
|    \\/     M anipulation  |                                                 |
\*---------------------------------------------------------------------------*/
FoamFile
{
    version     2.0;
    format      ascii;
    arch        "LSB;label=32;scalar=64";
    class       volScalarField;
    location    "3.3";
    object      T;
}
// * * * * * * * * * * * * * * * * * * * * * * * * * * * * * * * * * * * * * //

dimensions      [0 0 0 1 0 0 0];

internalField   nonuniform List<scalar> 
1000
(
0
0
0
0
0
0
0
0
0
0
0
0
0
0
0
0
0
0
0
0
0
0
0
0
0
0
0
0
0
0
0
0
0
0
0
0
0
0
0
0
0
0
0
0
0
0
0
0
0
0
0
0
0
0
0
0
0
0
0
0
0
0
0
0
0
0
0
0
0
0
0
0
0
0
0
0
0
0
0
0
0
0
0
0
0
0
0
0
0
0
0
0
0
0
0
0
0
0
0
0
0
0
0
0
0
0
0
0
0
0
0
0
0
0
0
0
0
0
0
0
0
0
0
0
0
0
0
0
0
0
0
0
0
0
0
0
0
0
0
0
0
0
0
0
0
0
0
0
0
0
0
0
0
0
0
0
0
0
0
0
0
0
0
0
0
0
0
0
0
0
0
0
0
0
0
0
0
0
0
0
0
0
0
0
0
0
0
0
0
0
0
0
0
0
0
0
0
0
0
0
0
0
0
0
0
0
0
0
0
0
0
0
0
0
0
0
0
0
0
0
0
0
0
0
0
0
0
0
0
0
0
0
0
0
0
0
0
0
0
0
9.33784e-322
8.44951e-320
7.21028e-318
6.12248e-316
5.17526e-314
4.3547e-312
3.64751e-310
3.04113e-308
2.52386e-306
2.08485e-304
1.71417e-302
1.40279e-300
1.14256e-298
9.26193e-297
7.47224e-295
5.9995e-293
4.79384e-291
3.81192e-289
3.01637e-287
2.37517e-285
1.86107e-283
1.45103e-281
1.1257e-279
8.68946e-278
6.67377e-276
5.09972e-274
3.87709e-272
2.93249e-270
2.20662e-268
1.65182e-266
1.23008e-264
9.1122e-263
6.71458e-261
4.92162e-259
3.5882e-257
2.60202e-255
1.8767e-253
1.34623e-251
9.60429e-250
6.81428e-248
4.80805e-246
3.37363e-244
2.35391e-242
1.63317e-240
1.1267e-238
7.72862e-237
5.27107e-235
3.57423e-233
2.40955e-231
1.6149e-229
1.07595e-227
7.12623e-226
4.69172e-224
3.07037e-222
1.9972e-220
1.29123e-218
8.29695e-217
5.29848e-215
3.36266e-213
2.12077e-211
1.32912e-209
8.27713e-208
5.12173e-206
3.14889e-204
1.92345e-202
1.16727e-200
7.03722e-199
4.21459e-197
2.50733e-195
1.48166e-193
8.69649e-192
5.06965e-190
2.93513e-188
1.6876e-186
9.63567e-185
5.46314e-183
3.07557e-181
1.71914e-179
9.54049e-178
5.25633e-176
2.87489e-174
1.56085e-172
8.4116e-171
4.49931e-169
2.38856e-167
1.25841e-165
6.5793e-164
3.41333e-162
1.75708e-160
8.97406e-159
4.54719e-157
2.28572e-155
1.13973e-153
5.63695e-152
2.76518e-150
1.34526e-148
6.4902e-147
3.10491e-145
1.47281e-143
6.92652e-142
3.22939e-140
1.49255e-138
6.83758e-137
3.1046e-135
1.39702e-133
6.22952e-132
2.75247e-130
1.20495e-128
5.22578e-127
2.24508e-125
9.55358e-124
4.02637e-122
1.68047e-120
6.94504e-119
2.84183e-117
1.15122e-115
4.6164e-114
1.83227e-112
7.19725e-111
2.7976e-109
1.07596e-107
4.09394e-106
1.5409e-104
5.73635e-103
2.11189e-101
7.68824e-100
2.7672e-98
9.84586e-97
3.46263e-95
1.20346e-93
4.13307e-92
1.40236e-90
4.70027e-89
1.55595e-87
5.08638e-86
1.64168e-84
5.23068e-83
1.64492e-81
5.10465e-80
1.56294e-78
4.72056e-77
1.40615e-75
4.13017e-74
1.19595e-72
3.41331e-71
9.59972e-70
2.65989e-68
7.25918e-67
1.95087e-65
5.16148e-64
1.34405e-62
3.44381e-61
8.68006e-60
2.15152e-58
5.24296e-57
1.2557e-55
2.95488e-54
6.82959e-53
1.5499e-51
3.45234e-50
7.54514e-49
1.61734e-47
3.39896e-46
7.00037e-45
1.41235e-43
2.79011e-42
5.3945e-41
1.02029e-39
1.88679e-38
3.4097e-37
6.01818e-36
1.03685e-34
1.74264e-33
2.85537e-32
4.55813e-31
7.08393e-30
1.07103e-28
1.57408e-27
2.24691e-26
3.11243e-25
4.17983e-24
5.43668e-23
6.84169e-22
8.32067e-21
9.76774e-20
1.10538e-18
1.20421e-17
1.26103e-16
1.2673e-15
1.22012e-14
1.12326e-13
9.86771e-13
8.25344e-12
6.55643e-11
4.93329e-10
3.50545e-09
2.34449e-08
1.47043e-07
8.61267e-07
4.68929e-06
2.36087e-05
0.000109257
0.000461625
0.00176703
0.00607441
0.0185685
0.0499276
0.116752
0.23496
0.404222
0.595778
0.76504
0.883248
0.950072
0.981432
0.993926
0.998233
0.999538
0.999891
0.999976
0.999995
0.999999
1
1
1
1
1
1
1
1
1
1
1
1
1
1
1
1
1
1
1
1
1
1
1
1
1
1
1
1
1
1
1
1
1
1
1
1
1
1
1
1
1
1
1
1
1
1
1
1
1
1
1
1
1
1
1
1
1
1
1
1
1
1
1
1
1
1
1
1
1
1
1
1
1
1
1
1
0.999999
0.999995
0.999976
0.999891
0.999538
0.998233
0.993926
0.981432
0.950072
0.883248
0.76504
0.595778
0.404222
0.23496
0.116752
0.0499276
0.0185685
0.00607441
0.00176703
0.000461625
0.000109257
2.36087e-05
4.68929e-06
8.61267e-07
1.47043e-07
2.34449e-08
3.50545e-09
4.93329e-10
6.55643e-11
8.25344e-12
9.86771e-13
1.12326e-13
1.22012e-14
1.2673e-15
1.26103e-16
1.20421e-17
1.10538e-18
9.76774e-20
8.32067e-21
6.84169e-22
5.43668e-23
4.17983e-24
3.11243e-25
2.24691e-26
1.57408e-27
1.07103e-28
7.08393e-30
4.55813e-31
2.85537e-32
1.74264e-33
1.03685e-34
6.01818e-36
3.4097e-37
1.88679e-38
1.02029e-39
5.3945e-41
2.79011e-42
1.41235e-43
7.00037e-45
3.39896e-46
1.61734e-47
7.54514e-49
3.45234e-50
1.5499e-51
6.82959e-53
2.95488e-54
1.2557e-55
5.24296e-57
2.15152e-58
8.68006e-60
3.44381e-61
1.34405e-62
5.16148e-64
1.95087e-65
7.25918e-67
2.65989e-68
9.59972e-70
3.41331e-71
1.19595e-72
4.13017e-74
1.40615e-75
4.72056e-77
1.56294e-78
5.10465e-80
1.64492e-81
5.23068e-83
1.64168e-84
5.08638e-86
1.55595e-87
4.70027e-89
1.40236e-90
4.13307e-92
1.20346e-93
3.46263e-95
9.84586e-97
2.7672e-98
7.68824e-100
2.11189e-101
5.73635e-103
1.5409e-104
4.09394e-106
1.07596e-107
2.7976e-109
7.19725e-111
1.83227e-112
4.6164e-114
1.15122e-115
2.84183e-117
6.94504e-119
1.68047e-120
4.02637e-122
9.55358e-124
2.24508e-125
5.22578e-127
1.20495e-128
2.75247e-130
6.22952e-132
1.39702e-133
3.1046e-135
6.83758e-137
1.49255e-138
3.22939e-140
6.92652e-142
1.47281e-143
3.10491e-145
6.4902e-147
1.34526e-148
2.76518e-150
5.63695e-152
1.13973e-153
2.28572e-155
4.54719e-157
8.97406e-159
1.75708e-160
3.41333e-162
6.5793e-164
1.25841e-165
2.38856e-167
4.49931e-169
8.4116e-171
1.56085e-172
2.87489e-174
5.25633e-176
9.54049e-178
1.71914e-179
3.07557e-181
5.46314e-183
9.63567e-185
1.6876e-186
2.93513e-188
5.06965e-190
8.69649e-192
1.48166e-193
2.50733e-195
4.21459e-197
7.03722e-199
1.16727e-200
1.92345e-202
3.14889e-204
5.12173e-206
8.27713e-208
1.32912e-209
2.12077e-211
3.36266e-213
5.29848e-215
8.29695e-217
1.29123e-218
1.9972e-220
3.07037e-222
4.69172e-224
7.12623e-226
1.07595e-227
1.6149e-229
2.40955e-231
3.57423e-233
5.27107e-235
7.72862e-237
1.1267e-238
1.63317e-240
2.35391e-242
3.37363e-244
4.80805e-246
6.81428e-248
9.60429e-250
1.34623e-251
1.8767e-253
2.60202e-255
3.5882e-257
4.92162e-259
6.71458e-261
9.1122e-263
1.23008e-264
1.65182e-266
2.20662e-268
2.93249e-270
3.87709e-272
5.09972e-274
6.67377e-276
8.68946e-278
1.1257e-279
1.45103e-281
1.86107e-283
2.37517e-285
3.01637e-287
3.81192e-289
4.79384e-291
5.9995e-293
7.47224e-295
9.26193e-297
1.14256e-298
1.40279e-300
1.71417e-302
2.08485e-304
2.52386e-306
3.04113e-308
3.64751e-310
4.3547e-312
5.17526e-314
6.12248e-316
7.21028e-318
8.44951e-320
9.33784e-322
0
0
0
0
0
0
0
0
0
0
0
0
0
0
0
0
0
0
0
0
0
0
0
0
0
0
0
0
0
0
0
0
0
0
0
0
0
0
0
0
0
0
0
0
0
0
0
0
0
0
0
0
0
0
0
0
0
0
0
0
0
0
0
0
0
0
0
0
0
0
0
0
0
0
0
0
0
0
0
0
0
0
0
0
0
0
0
0
0
0
0
0
0
0
0
0
0
0
0
0
0
0
0
0
0
0
0
0
0
0
0
0
0
0
0
0
0
0
0
0
0
0
0
0
0
0
0
0
0
0
0
0
0
0
0
0
0
0
0
0
0
0
0
0
0
0
0
0
0
0
0
0
0
0
0
0
0
0
0
0
0
0
0
0
0
0
0
0
0
0
0
0
0
0
0
0
0
0
0
0
0
0
0
0
0
0
0
0
0
0
0
0
0
0
0
0
0
0
0
0
0
0
0
0
0
0
0
0
0
0
0
0
0
0
0
0
0
0
0
0
0
0
0
0
0
0
0
0
0
0
0
0
0
0
0
0
0
0
0
0
)
;

boundaryField
{
    sides
    {
        type            zeroGradient;
    }
    empty
    {
        type            empty;
    }
}


// ************************************************************************* //
