/*--------------------------------*- C++ -*----------------------------------*\
| =========                 |                                                 |
| \\      /  F ield         | OpenFOAM: The Open Source CFD Toolbox           |
|  \\    /   O peration     | Version:  2312                                  |
|   \\  /    A nd           | Website:  www.openfoam.com                      |
|    \\/     M anipulation  |                                                 |
\*---------------------------------------------------------------------------*/
FoamFile
{
    version     2.0;
    format      ascii;
    arch        "LSB;label=32;scalar=64";
    class       volScalarField;
    location    "4.9";
    object      T;
}
// * * * * * * * * * * * * * * * * * * * * * * * * * * * * * * * * * * * * * //

dimensions      [0 0 0 1 0 0 0];

internalField   nonuniform List<scalar> 
1000
(
0
0
0
0
0
0
0
0
0
0
0
0
0
0
0
0
0
0
0
0
0
0
0
0
0
0
0
0
0
0
0
0
0
0
0
0
0
0
0
0
0
0
0
0
0
0
0
0
0
0
0
0
0
0
0
0
0
0
0
0
0
0
0
0
0
0
0
0
0
0
0
0
0
0
0
0
0
0
0
0
0
0
0
0
0
0
0
0
0
0
0
0
0
0
0
0
0
0
0
0
0
0
0
0
0
0
0
0
0
0
0
0
0
0
0
0
0
0
0
0
0
0
0
0
0
0
0
0
0
0
0
0
0
0
0
0
0
0
0
0
0
0
0
0
0
0
0
0
0
0
0
0
0
0
0
0
0
0
0
0
0
0
0
0
0
0
0
0
0
0
0
0
0
0
0
0
0
0
0
0
0
0
0
0
0
0
0
0
0
0
0
0
0
0
0
0
0
0
0
0
0
0
0
0
0
0
0
0
0
0
0
0
0
0
0
0
0
0
0
0
0
1.46737e-321
9.89811e-320
6.30473e-318
3.99777e-316
2.52424e-314
1.58709e-312
9.93635e-311
6.19432e-309
3.84498e-307
2.37641e-305
1.46239e-303
8.96012e-302
5.46591e-300
3.31971e-298
2.00733e-296
1.20839e-294
7.242e-293
4.32078e-291
2.5663e-289
1.51735e-287
8.93074e-286
5.23242e-284
3.05156e-282
1.77147e-280
1.0236e-278
5.88705e-277
3.37e-275
1.92006e-273
1.08878e-271
6.14467e-270
3.45125e-268
1.92915e-266
1.07313e-264
5.94057e-263
3.27251e-261
1.7939e-259
9.78521e-258
5.31111e-256
2.86834e-254
1.54133e-252
8.24077e-251
4.38365e-249
2.32e-247
1.22155e-245
6.39869e-244
3.3344e-242
1.72854e-240
8.91376e-239
4.57247e-237
2.33311e-235
1.18414e-233
5.97773e-232
3.00141e-230
1.49884e-228
7.44414e-227
3.67693e-225
1.80616e-223
8.82291e-222
4.28586e-220
2.07024e-218
9.94359e-217
4.7489e-215
2.25503e-213
1.06466e-211
4.99741e-210
2.33209e-208
1.08192e-206
4.98973e-205
2.28757e-203
1.04249e-201
4.72231e-200
2.12619e-198
9.51476e-197
4.23181e-195
1.87055e-193
8.21689e-192
3.58695e-190
1.55598e-188
6.70691e-187
2.87253e-185
1.2224e-183
5.16825e-182
2.17091e-180
9.05908e-179
3.75537e-177
1.54642e-175
6.32538e-174
2.56986e-172
1.03699e-170
4.15589e-169
1.65406e-167
6.53759e-166
2.56589e-164
9.99982e-163
3.86951e-161
1.48664e-159
5.67045e-158
2.14718e-156
8.07113e-155
3.01154e-153
1.11534e-151
4.09983e-150
1.49567e-148
5.41494e-147
1.94541e-145
6.93522e-144
2.45309e-142
8.60886e-141
2.99726e-139
1.0352e-137
3.5466e-136
1.2052e-134
4.06199e-133
1.35774e-131
4.50048e-130
1.47923e-128
4.82078e-127
1.55764e-125
4.98945e-124
1.58431e-122
4.98645e-121
1.55552e-119
4.80897e-118
1.47328e-116
4.4724e-115
1.34517e-113
4.00824e-112
1.18313e-110
3.4592e-109
1.0017e-107
2.87263e-106
8.15748e-105
2.29363e-103
6.38467e-102
1.75936e-100
4.7987e-99
1.29539e-97
3.46046e-96
9.14696e-95
2.39209e-93
6.18847e-92
1.58359e-90
4.00774e-89
1.003e-87
2.48192e-86
6.07159e-85
1.46821e-83
3.50897e-82
8.2874e-81
1.93393e-79
4.45839e-78
1.01524e-76
2.28317e-75
5.07013e-74
1.11158e-72
2.40561e-71
5.13808e-70
1.0829e-68
2.25167e-67
4.61818e-66
9.34118e-65
1.86298e-63
3.66272e-62
7.09733e-61
1.35515e-59
2.54906e-58
4.72255e-57
8.61534e-56
1.54725e-54
2.73481e-53
4.75623e-52
8.13671e-51
1.36887e-49
2.26401e-48
3.68016e-47
5.87749e-46
9.2197e-45
1.42002e-43
2.14673e-42
3.18426e-41
4.63262e-40
6.60793e-39
9.23739e-38
1.26502e-36
1.69637e-35
2.22649e-34
2.85888e-33
3.58946e-32
4.40451e-31
5.27918e-30
6.17719e-29
7.05203e-28
7.84994e-27
8.51462e-26
8.99316e-25
9.24263e-24
9.236e-23
8.96663e-22
8.45015e-21
7.72322e-20
6.83943e-19
5.8626e-18
4.85896e-17
3.8894e-16
3.00317e-15
2.23393e-14
1.59862e-13
1.09889e-12
7.24441e-12
4.57231e-11
2.75764e-10
1.5861e-09
8.6808e-09
4.51009e-08
2.2186e-07
1.03039e-06
4.50413e-06
1.84683e-05
7.07672e-05
0.000252385
0.000834053
0.00254181
0.00710696
0.0181337
0.0419953
0.0878243
0.165166
0.278692
0.422286
0.577714
0.721308
0.834834
0.912176
0.958005
0.981866
0.992893
0.997458
0.999166
0.999748
0.999929
0.999982
0.999995
0.999999
1
1
1
1
1
1
1
1
1
1
1
1
1
1
1
1
1
1
1
1
1
1
1
1
1
1
1
1
1
1
1
1
1
1
1
1
1
1
1
1
1
1
1
1
1
1
1
1
1
1
1
1
1
1
1
1
1
1
1
1
1
1
1
1
1
1
1
1
1
1
1
1
0.999999
0.999995
0.999982
0.999929
0.999748
0.999166
0.997458
0.992893
0.981866
0.958005
0.912176
0.834834
0.721308
0.577714
0.422286
0.278692
0.165166
0.0878243
0.0419953
0.0181337
0.00710696
0.00254181
0.000834053
0.000252385
7.07672e-05
1.84683e-05
4.50413e-06
1.03039e-06
2.2186e-07
4.51009e-08
8.6808e-09
1.5861e-09
2.75764e-10
4.57231e-11
7.24441e-12
1.09889e-12
1.59862e-13
2.23393e-14
3.00317e-15
3.8894e-16
4.85896e-17
5.8626e-18
6.83943e-19
7.72322e-20
8.45015e-21
8.96663e-22
9.236e-23
9.24263e-24
8.99316e-25
8.51462e-26
7.84994e-27
7.05203e-28
6.17719e-29
5.27918e-30
4.40451e-31
3.58946e-32
2.85888e-33
2.22649e-34
1.69637e-35
1.26502e-36
9.23739e-38
6.60793e-39
4.63262e-40
3.18426e-41
2.14673e-42
1.42002e-43
9.2197e-45
5.87749e-46
3.68016e-47
2.26401e-48
1.36887e-49
8.13671e-51
4.75623e-52
2.73481e-53
1.54725e-54
8.61534e-56
4.72255e-57
2.54906e-58
1.35515e-59
7.09733e-61
3.66272e-62
1.86298e-63
9.34118e-65
4.61818e-66
2.25167e-67
1.0829e-68
5.13808e-70
2.40561e-71
1.11158e-72
5.07013e-74
2.28317e-75
1.01524e-76
4.45839e-78
1.93393e-79
8.2874e-81
3.50897e-82
1.46821e-83
6.07159e-85
2.48192e-86
1.003e-87
4.00774e-89
1.58359e-90
6.18847e-92
2.39209e-93
9.14696e-95
3.46046e-96
1.29539e-97
4.7987e-99
1.75936e-100
6.38467e-102
2.29363e-103
8.15748e-105
2.87263e-106
1.0017e-107
3.4592e-109
1.18313e-110
4.00824e-112
1.34517e-113
4.4724e-115
1.47328e-116
4.80897e-118
1.55552e-119
4.98645e-121
1.58431e-122
4.98945e-124
1.55764e-125
4.82078e-127
1.47923e-128
4.50048e-130
1.35774e-131
4.06199e-133
1.2052e-134
3.5466e-136
1.0352e-137
2.99726e-139
8.60886e-141
2.45309e-142
6.93522e-144
1.94541e-145
5.41494e-147
1.49567e-148
4.09983e-150
1.11534e-151
3.01154e-153
8.07113e-155
2.14718e-156
5.67045e-158
1.48664e-159
3.86951e-161
9.99982e-163
2.56589e-164
6.53759e-166
1.65406e-167
4.15589e-169
1.03699e-170
2.56986e-172
6.32538e-174
1.54642e-175
3.75537e-177
9.05908e-179
2.17091e-180
5.16825e-182
1.2224e-183
2.87253e-185
6.70691e-187
1.55598e-188
3.58695e-190
8.21689e-192
1.87055e-193
4.23181e-195
9.51476e-197
2.12619e-198
4.72231e-200
1.04249e-201
2.28757e-203
4.98973e-205
1.08192e-206
2.33209e-208
4.99741e-210
1.06466e-211
2.25503e-213
4.7489e-215
9.94359e-217
2.07024e-218
4.28586e-220
8.82291e-222
1.80616e-223
3.67693e-225
7.44414e-227
1.49884e-228
3.00141e-230
5.97773e-232
1.18414e-233
2.33311e-235
4.57247e-237
8.91376e-239
1.72854e-240
3.3344e-242
6.39869e-244
1.22155e-245
2.32e-247
4.38365e-249
8.24077e-251
1.54133e-252
2.86834e-254
5.31111e-256
9.78521e-258
1.7939e-259
3.27251e-261
5.94057e-263
1.07313e-264
1.92915e-266
3.45125e-268
6.14467e-270
1.08878e-271
1.92006e-273
3.37e-275
5.88705e-277
1.0236e-278
1.77147e-280
3.05156e-282
5.23242e-284
8.93074e-286
1.51735e-287
2.5663e-289
4.32078e-291
7.242e-293
1.20839e-294
2.00733e-296
3.31971e-298
5.46591e-300
8.96012e-302
1.46239e-303
2.37641e-305
3.84498e-307
6.19432e-309
9.93635e-311
1.58709e-312
2.52424e-314
3.99777e-316
6.30473e-318
9.89811e-320
1.46737e-321
0
0
0
0
0
0
0
0
0
0
0
0
0
0
0
0
0
0
0
0
0
0
0
0
0
0
0
0
0
0
0
0
0
0
0
0
0
0
0
0
0
0
0
0
0
0
0
0
0
0
0
0
0
0
0
0
0
0
0
0
0
0
0
0
0
0
0
0
0
0
0
0
0
0
0
0
0
0
0
0
0
0
0
0
0
0
0
0
0
0
0
0
0
0
0
0
0
0
0
0
0
0
0
0
0
0
0
0
0
0
0
0
0
0
0
0
0
0
0
0
0
0
0
0
0
0
0
0
0
0
0
0
0
0
0
0
0
0
0
0
0
0
0
0
0
0
0
0
0
0
0
0
0
0
0
0
0
0
0
0
0
0
0
0
0
0
0
0
0
0
0
0
0
0
0
0
0
0
0
0
0
0
0
0
0
0
0
0
0
0
0
0
0
0
0
0
0
0
0
0
0
0
0
0
0
0
0
0
0
0
0
0
0
0
0
0
0
0
0
0
0
)
;

boundaryField
{
    sides
    {
        type            zeroGradient;
    }
    empty
    {
        type            empty;
    }
}


// ************************************************************************* //
