/*--------------------------------*- C++ -*----------------------------------*\
| =========                 |                                                 |
| \\      /  F ield         | OpenFOAM: The Open Source CFD Toolbox           |
|  \\    /   O peration     | Version:  2312                                  |
|   \\  /    A nd           | Website:  www.openfoam.com                      |
|    \\/     M anipulation  |                                                 |
\*---------------------------------------------------------------------------*/
FoamFile
{
    version     2.0;
    format      ascii;
    arch        "LSB;label=32;scalar=64";
    class       volScalarField;
    location    "2.8";
    object      T;
}
// * * * * * * * * * * * * * * * * * * * * * * * * * * * * * * * * * * * * * //

dimensions      [0 0 0 1 0 0 0];

internalField   nonuniform List<scalar> 
1000
(
1.75467e-37
-2.65167e-37
5.96014e-37
-1.27266e-36
2.72621e-36
-5.82275e-36
1.24088e-35
-2.63828e-35
5.59632e-35
-1.18432e-34
2.50046e-34
-5.26678e-34
1.10673e-33
-2.32012e-33
4.85221e-33
-1.01234e-32
2.10703e-32
-4.37484e-32
9.06148e-32
-1.8723e-31
3.85911e-31
-7.93468e-31
1.62741e-30
-3.32954e-30
6.79495e-30
-1.38324e-29
2.80877e-29
-5.68896e-29
1.14933e-28
-2.31603e-28
4.65509e-28
-9.33233e-28
1.86605e-27
-3.72157e-27
7.40267e-27
-1.46861e-26
2.90586e-26
-5.73438e-26
1.12859e-25
-2.21523e-25
4.33637e-25
-8.46552e-25
1.64814e-24
-3.19994e-24
6.1957e-24
-1.19628e-23
2.30337e-23
-4.42258e-23
8.46761e-23
-1.61664e-22
3.07771e-22
-5.84245e-22
1.10588e-21
-2.08719e-21
3.92777e-21
-7.36979e-21
1.37874e-20
-2.57168e-20
4.78248e-20
-8.86714e-20
1.63908e-19
-3.02061e-19
5.54955e-19
-1.01644e-18
1.85592e-18
-3.37817e-18
6.12968e-18
-1.10872e-17
1.99904e-17
-3.59279e-17
6.43636e-17
-1.14931e-16
2.04558e-16
-3.62882e-16
6.41614e-16
-1.13066e-15
1.98578e-15
-3.47585e-15
6.06328e-15
-1.05406e-14
1.82606e-14
-3.15249e-14
5.42334e-14
-9.29698e-14
1.58806e-13
-2.70292e-13
4.58378e-13
-7.74512e-13
1.30387e-12
-2.18689e-12
3.65421e-12
-6.08305e-12
1.00878e-11
-1.66649e-11
2.74238e-11
-4.49526e-11
7.33955e-11
-1.19359e-10
1.9333e-10
-3.11876e-10
5.01056e-10
-8.01673e-10
1.27731e-09
-2.02658e-09
3.20173e-09
-5.0366e-09
7.88867e-09
-1.23016e-08
1.90983e-08
-2.95173e-08
4.54138e-08
-6.95515e-08
1.06025e-07
-1.60869e-07
2.42924e-07
-3.65073e-07
5.45974e-07
-8.12497e-07
1.2031e-06
-1.77247e-06
2.59794e-06
-3.78807e-06
5.49432e-06
-7.92654e-06
1.13735e-05
-1.62295e-05
2.30293e-05
-3.24926e-05
4.55798e-05
-6.35628e-05
8.81113e-05
-0.000121398
0.000166223
-0.000226164
0.000305738
-0.000410597
0.00054772
-0.000725631
0.000954596
-0.0012468
0.00161648
-0.00207999
0.00265569
-0.00336378
0.00422579
-0.00526392
0.00649998
-0.00795402
0.00964251
-0.0115762
0.0137575
-0.0161778
0.0188143
-0.0216271
0.0245569
-0.0275227
0.0304212
-0.0331274
0.0354972
-0.0373726
0.0385887
-0.0389841
0.0384135
-0.0367621
0.0339607
-0.030001
0.0249489
-0.0189532
0.0122498
-0.00515675
-0.00193803
0.0086
-0.0143797
0.0188521
-0.0216605
0.0225609
-0.0214599
0.0184435
-0.0137875
0.00794767
-0.00152639
-0.0047835
0.0102737
-0.0143068
0.0164024
-0.0163118
0.0140671
-0.00999465
0.00468537
0.00107764
-0.00642844
0.0105498
-0.0128074
0.0128624
-0.0107424
0.00685019
-0.00190646
-0.00317144
0.00743514
-0.0100868
0.0106404
-0.00902877
0.00562807
-0.00118972
-0.00331256
0.00689187
-0.00876922
0.00855589
-0.00635121
0.00272704
0.00140369
-0.00500804
0.00719186
-0.00743115
0.00571331
-0.00254585
-0.00117611
0.00441311
-0.00627158
0.0062595
-0.00443151
0.00137581
0.00195919
-0.00455157
0.00562098
-0.00487378
0.00259723
0.00043258
-0.00320499
0.00481112
-0.00475093
0.00310455
-0.000504594
-0.00208629
0.00371793
-0.00379412
0.00228743
0.000255603
-0.00292575
0.00480302
-0.00531629
0.00446988
-0.00284488
0.00137006
-0.000951132
0.00210776
-0.00476907
0.00831575
-0.0118542
0.0146077
-0.0162545
0.0170637
-0.0177629
0.0191935
-0.0219068
0.0258842
-0.0305135
0.0348342
-0.03794
0.0393482
-0.0391587
0.0379284
-0.0363227
0.0347247
-0.0330031
0.0305664
-0.0266825
0.0209048
-0.0133856
0.00490871
0.00337958
-0.0104067
0.0155512
-0.01877
0.0204224
-0.0209086
0.0203452
-0.0184805
0.0149073
-0.00945503
0.00252191
0.00486739
-0.0113427
0.0156773
-0.0172306
0.0161131
-0.0130061
0.00876671
-0.00406782
-0.000718953
0.00536199
-0.00949018
0.0124412
-0.013401
0.0117943
-0.00769626
0.00198871
0.00387775
-0.00841816
0.0106619
-0.0104269
0.00820676
-0.00479802
0.00093821
0.00282958
-0.00604986
0.00819059
-0.00865123
0.00702397
-0.00345769
-0.00116088
0.0054158
-0.00791707
0.00791039
-0.0055896
0.00193831
0.00177674
-0.00453714
0.00583913
-0.00563368
0.00411746
-0.00161131
-0.00138941
0.00412963
-0.00569475
0.00537432
-0.00310798
-0.000317022
0.00353555
-0.00524672
0.00485454
-0.00271444
-0.000141223
0.00257788
-0.00385062
0.00376204
-0.00252536
0.000564566
0.00157217
-0.00322453
0.00373445
-0.00274569
0.000526845
0.00198624
-0.00359225
0.00348924
-0.00176475
-0.000648404
0.00253365
-0.0030782
0.00223325
-0.000579183
-0.00109968
0.00218516
-0.00236121
0.001598
-0.000147342
-0.00143819
0.00241825
-0.00221159
0.000815835
0.00105371
-0.00232627
0.00225679
-0.000931546
-0.000801002
0.00192195
-0.00189356
0.000901937
0.000399826
-0.00134954
0.0015793
-0.00106237
4.33361e-05
0.00102481
-0.00159152
0.00126951
-0.000152155
-0.00111153
0.0016835
-0.00114854
-0.000129257
0.0012539
-0.00147565
0.000733186
0.000375926
-0.00110859
0.00109341
-0.000467143
-0.000344055
0.000909492
-0.00095498
0.000439705
0.000382249
-0.00100773
0.00096531
-0.000211776
-0.000728695
0.00112472
-0.000653781
-0.000295834
0.000955682
-0.000842201
0.00012996
0.000577071
-0.000786996
0.000450615
0.000126122
-0.000568377
0.000633354
-0.000282216
-0.000288104
0.00068848
-0.000572758
-3.08206e-05
0.000642567
-0.000712708
0.000157382
0.000520779
-0.000707814
0.000272353
0.000343188
-0.000595536
0.000339791
0.000131602
-0.000433964
0.0003932
-8.22028e-05
-0.000284298
0.000450928
-0.000256879
-0.000188835
0.000503651
-0.000355284
-0.000153205
0.000521122
-0.000366008
-0.000145302
0.000477134
-0.000317071
-0.00011765
0.000377601
-0.000265675
-4.42362e-05
0.000268478
-0.000262339
5.36594e-05
0.000209453
-0.000311493
0.000118568
0.000226685
-0.000363743
0.000105176
0.000284438
-0.000357192
2.80949e-05
0.000311008
-0.000279614
-4.21521e-05
0.000267451
-0.000189573
-4.55393e-05
0.000193713
-0.000160801
-8.76977e-07
0.000171126
-0.00019649
7.68161e-06
0.00022587
-0.000214779
-6.96673e-05
0.000284713
-0.000143523
-0.000175004
0.000257221
-2.00875e-05
-0.000205819
0.000157795
4.7642e-05
-0.000154172
9.42511e-05
3.21663e-05
-0.000124784
0.000110323
3.46198e-05
-0.000175428
0.000107422
0.000126755
-0.00020928
-1.92129e-06
0.000214618
-0.000121306
-0.000130007
0.000175861
1.1278e-05
-0.000140791
7.4752e-05
4.50324e-05
-8.72288e-05
5.57396e-05
2.77927e-05
-0.000111424
6.72826e-05
0.000100834
-0.000150136
-3.67602e-05
0.00018523
-4.55517e-05
-0.000162939
0.000107568
9.91178e-05
-0.000124172
-2.40347e-05
9.14527e-05
-3.22682e-05
-2.44784e-05
5.15106e-05
-5.16766e-05
-3.18815e-05
0.000112646
-1.4194e-05
-0.000142881
6.67599e-05
0.000138937
-0.000106115
-0.000108031
0.000118858
6.35232e-05
-0.000100731
-1.95672e-05
5.62513e-05
-1.3221e-05
3.91963e-06
3.00172e-05
-6.65135e-05
-3.18226e-05
0.000118942
2.37895e-05
-0.000151611
-1.26833e-05
0.000159081
4.33694e-06
-0.000140268
-1.77729e-06
9.80701e-05
4.4304e-06
-3.87786e-05
-8.5441e-06
-2.85594e-05
8.71752e-06
9.28985e-05
-1.98686e-07
-0.000142331
-1.86161e-05
0.000165905
4.42564e-05
-0.000156227
-6.77186e-05
0.00011251
7.62535e-05
-4.31078e-05
-5.76736e-05
-3.39767e-05
6.46609e-06
9.41885e-05
7.03263e-05
-0.000113898
-0.000150657
8.10813e-05
0.000201779
-5.30726e-06
-0.000192748
-7.91122e-05
0.000112347
0.000122725
1.58335e-05
-8.45309e-05
-0.000132964
-3.83539e-05
0.000168194
0.000192784
-8.22528e-05
-0.000283975
-9.06147e-05
0.000229734
0.000238052
-3.22171e-05
-0.000228703
-0.000186582
1.91043e-05
0.000241223
0.000266362
-3.10842e-05
-0.000381046
-0.000318768
0.000156094
0.000485487
0.000276011
-0.00021997
-0.000489187
-0.000316915
0.00014423
0.000551256
0.000521843
-5.49151e-05
-0.000719854
-0.000764282
-3.23746e-05
0.000815868
0.000985351
0.000316009
-0.000675715
-0.00126339
-0.000943577
0.000237833
0.00151921
0.00181434
0.000642684
-0.00128695
-0.00256308
-0.00216795
-0.000161553
0.00239791
0.00396972
0.00326615
0.000117507
-0.00405137
-0.00678688
-0.00604138
-0.00143713
0.00543957
0.0116127
0.0137243
0.0093157
-0.00181714
-0.0168525
-0.030369
-0.0357609
-0.0268129
0.00110413
0.0501818
0.119647
0.205879
0.303339
0.405833
0.507471
0.603175
0.689073
0.762872
0.823916
0.872745
0.910504
0.93864
0.958882
0.973092
0.982909
0.989495
0.993664
0.996162
0.997705
0.998755
0.999429
0.999713
0.999745
0.999784
0.999946
1.0001
1.00007
0.999922
0.999859
0.999982
1.00014
1.00011
0.999937
0.999833
0.999943
1.00014
1.00016
0.999983
0.99981
0.999866
1.0001
1.00022
1.00009
0.999831
0.99976
0.999972
1.00024
1.00025
0.999968
0.999701
0.99975
1.00009
1.00036
1.00026
0.999865
0.999569
0.999701
1.00017
1.00051
1.00037
0.999834
0.999394
0.999499
1.00011
1.0007
1.00071
1.00005
0.999243
0.999004
0.999624
1.00068
1.00132
1.00095
0.999701
0.998471
0.998246
0.999376
1.00123
1.00253
1.00222
1.0002
0.997556
0.995981
0.996771
0.99994
1.00403
1.00672
1.00605
1.0015
0.994569
0.988321
0.986248
0.990744
1.00186
1.01681
1.03031
1.03579
1.02689
0.998894
0.949742
0.880327
0.794189
0.696714
0.594118
0.492454
0.396844
0.311013
0.237146
0.176004
0.127199
0.0895535
0.0614452
0.0411008
0.0268104
0.0170591
0.0105901
0.00641508
0.00379226
0.00218778
0.00123168
0.00067661
0.000362606
0.000189524
9.6572e-05
4.79476e-05
2.31799e-05
1.09019e-05
4.98249e-06
2.20957e-06
9.48981e-07
3.93723e-07
1.57254e-07
6.01664e-08
2.18916e-08
7.48713e-09
2.35805e-09
6.55555e-10
1.43249e-10
1.21565e-11
-1.06959e-11
-9.00906e-12
-4.77474e-12
-2.0763e-12
-7.85742e-13
-2.60859e-13
-7.38193e-14
-1.59295e-14
-1.23907e-15
1.15965e-15
8.98744e-16
4.34322e-16
1.67765e-16
5.39887e-17
1.39573e-17
2.34237e-18
-1.78586e-19
-3.80073e-19
-2.11029e-19
-8.44479e-20
-2.69345e-20
-6.62123e-21
-9.32561e-22
1.81307e-22
2.08424e-22
1.01593e-22
3.625e-23
9.94108e-24
1.81831e-24
-1.91562e-26
-2.01928e-25
-1.11346e-25
-4.11953e-26
-1.13854e-26
-2.06461e-27
2.51546e-29
2.22275e-28
1.18023e-28
4.1485e-29
1.05542e-29
1.5442e-30
-2.13764e-31
-2.63027e-31
-1.17395e-31
-3.60176e-32
-7.49269e-33
-4.51121e-34
4.75448e-34
2.85488e-34
1.00898e-34
2.45946e-35
3.08201e-36
-7.10971e-37
-6.35675e-37
-2.51013e-37
-6.66459e-38
-1.02446e-38
9.33373e-40
1.36321e-39
5.78167e-40
1.59193e-40
2.59461e-41
-1.42573e-42
-2.91908e-42
-1.25945e-42
-3.44037e-43
-5.43088e-44
3.73984e-45
6.30982e-45
2.60768e-45
6.76083e-46
9.40456e-47
-1.28032e-47
-1.35434e-47
-5.0886e-48
-1.19421e-48
-1.24725e-49
4.03481e-50
2.79595e-50
9.18252e-51
1.83685e-51
8.27167e-53
-1.08147e-52
-5.36483e-53
-1.48868e-53
-2.28339e-54
1.64497e-55
2.45984e-55
9.25976e-56
2.0714e-56
1.77133e-57
-8.13917e-58
-4.75606e-58
-1.38571e-58
-2.24799e-59
9.1499e-61
2.03786e-60
7.7431e-61
1.69489e-61
1.30732e-62
-6.95287e-63
-3.77256e-63
-1.02915e-63
-1.45483e-64
1.48424e-65
1.628e-65
5.45356e-66
1.02421e-66
2.37546e-68
-6.21423e-68
-2.61222e-68
-5.94528e-69
-5.22433e-70
2.04962e-70
1.15338e-70
3.06572e-71
3.99071e-72
-5.39688e-73
-4.75498e-73
-1.45269e-73
-2.34767e-74
7.715e-76
1.84839e-75
6.45051e-76
1.20449e-76
2.76734e-78
-6.83442e-78
-2.7197e-78
-5.6436e-79
-3.27363e-80
2.42583e-80
1.09957e-80
2.47123e-81
2.01125e-82
-8.3563e-83
-4.29605e-83
-1.02502e-83
-9.95341e-85
2.83192e-85
1.63211e-85
4.06197e-86
4.35056e-87
-9.59562e-88
-6.058e-88
-1.54644e-88
-1.73818e-89
3.30399e-90
2.20414e-90
5.67551e-91
6.44327e-92
-1.1694e-92
-7.87478e-93
-2.01146e-93
-2.22793e-94
4.26312e-95
2.76321e-95
6.88624e-96
7.17471e-97
-1.58781e-97
-9.51132e-98
-2.27489e-98
-2.13192e-99
5.95632e-100
3.20386e-100
7.23435e-101
5.71512e-102
-2.21656e-102
-1.05261e-102
-2.20587e-103
-1.30805e-104
8.0791e-105
3.35945e-105
6.41051e-106
2.12464e-107
-2.85689e-107
-1.03672e-107
-1.75943e-108
4.1849e-111
9.73431e-110
3.077e-110
4.49358e-111
-2.40032e-112
-3.17968e-112
-8.72795e-113
-1.03957e-113
1.40192e-114
9.91469e-115
2.34685e-115
2.05199e-116
-6.01331e-117
-2.93877e-117
-5.91393e-118
-2.83928e-119
2.20987e-119
8.23965e-120
1.37136e-120
-7.80085e-123
-7.29692e-122
-2.171e-122
-2.82739e-123
2.55354e-124
2.20636e-124
5.32317e-125
4.76889e-126
-1.26107e-126
-6.15267e-127
-1.19509e-127
-4.64799e-129
4.58363e-129
1.58237e-129
2.38193e-130
-8.32014e-132
-1.41731e-131
-3.72914e-132
-3.91647e-133
6.84179e-134
3.89093e-134
7.94061e-135
3.70376e-136
-2.06298e-136
)
;

boundaryField
{
    sides
    {
        type            zeroGradient;
    }
    empty
    {
        type            empty;
    }
}


// ************************************************************************* //
