/*--------------------------------*- C++ -*----------------------------------*\
| =========                 |                                                 |
| \\      /  F ield         | OpenFOAM: The Open Source CFD Toolbox           |
|  \\    /   O peration     | Version:  2312                                  |
|   \\  /    A nd           | Website:  www.openfoam.com                      |
|    \\/     M anipulation  |                                                 |
\*---------------------------------------------------------------------------*/
FoamFile
{
    version     2.0;
    format      ascii;
    arch        "LSB;label=32;scalar=64";
    class       volScalarField;
    location    "4.9";
    object      T;
}
// * * * * * * * * * * * * * * * * * * * * * * * * * * * * * * * * * * * * * //

dimensions      [0 0 0 1 0 0 0];

internalField   nonuniform List<scalar> 
1000
(
2.60183e-284
2.97728e-285
9.0564e-284
-3.42899e-283
1.68346e-282
-7.8373e-282
3.6631e-281
-1.70232e-280
7.87864e-280
-3.63027e-279
1.66538e-278
-7.60594e-278
3.45817e-277
-1.56523e-276
7.05229e-276
-3.16292e-275
1.41201e-274
-6.27419e-274
2.77481e-273
-1.22137e-272
5.35034e-272
-2.33247e-271
1.01189e-270
-4.36832e-270
1.87645e-269
-8.02016e-269
3.41059e-268
-1.44296e-267
6.07346e-267
-2.54303e-266
1.0592e-265
-4.3882e-265
1.80824e-264
-7.41072e-264
3.02045e-263
-1.22422e-262
4.934e-262
-1.97724e-261
7.87782e-261
-3.1204e-260
1.22868e-259
-4.809e-259
1.87079e-258
-7.23282e-258
2.77886e-257
-1.06087e-256
4.02391e-256
-1.51629e-255
5.67567e-255
-2.1101e-254
7.79093e-254
-2.85642e-253
1.03978e-252
-3.75743e-252
1.34773e-251
-4.79748e-251
1.69452e-250
-5.93785e-250
2.06385e-249
-7.11385e-249
2.43118e-248
-8.23591e-248
2.76491e-247
-9.19615e-247
3.0294e-246
-9.88081e-246
3.18976e-245
-1.01878e-244
3.21786e-244
-1.00463e-243
3.09853e-243
-9.43495e-243
2.83427e-242
-8.39257e-242
2.44718e-241
-7.01841e-241
1.9769e-240
-5.45917e-240
1.4746e-239
-3.88446e-239
9.93885e-239
-2.45575e-238
5.80866e-238
-1.29646e-237
2.65825e-237
-4.71183e-237
5.88398e-237
2.03606e-237
-4.95212e-236
2.33218e-235
-8.2845e-235
2.54964e-234
-7.0762e-234
1.7882e-233
-4.07524e-233
8.06959e-233
-1.23296e-232
6.45037e-233
5.0526e-232
-2.87512e-231
1.05353e-230
-3.16836e-230
8.23772e-230
-1.84763e-229
3.37355e-229
-3.85037e-229
-3.99831e-229
4.43154e-228
-1.82692e-227
5.67349e-227
-1.45797e-226
3.08479e-226
-4.79668e-226
2.03158e-226
2.20679e-225
-1.15266e-224
3.86241e-224
-1.01861e-223
2.13529e-223
-3.08393e-223
7.8195e-225
1.97829e-222
-8.99692e-222
2.76604e-221
-6.56929e-221
1.14237e-220
-8.28359e-221
-3.73853e-220
2.1976e-219
-7.29718e-219
1.79323e-218
-3.15496e-218
2.21359e-218
1.07491e-217
-6.11377e-217
1.95979e-216
-4.53351e-216
6.91073e-216
-4.8254e-217
-4.24664e-215
1.84562e-214
-5.12806e-214
9.90293e-214
-8.95561e-214
-2.58092e-213
1.65961e-212
-5.2996e-212
1.15022e-211
-1.39557e-211
-1.56733e-211
1.5402e-210
-5.34706e-210
1.2135e-209
-1.55808e-209
-1.37586e-209
1.55176e-208
-5.41399e-208
1.20023e-207
-1.3918e-207
-2.0365e-207
1.69731e-206
-5.47234e-206
1.0979e-205
-8.8081e-206
-3.47095e-205
1.9209e-204
-5.33116e-204
8.6842e-204
-1.55306e-205
-5.41234e-203
2.10011e-202
-4.67688e-202
4.73139e-202
1.13028e-201
-7.27424e-201
2.05099e-200
-3.19435e-200
-8.13157e-201
2.30453e-199
-8.11048e-199
1.58218e-198
-8.0987e-199
-6.87651e-198
3.03959e-197
-6.87828e-197
6.2437e-197
2.00279e-196
-1.11551e-195
2.79236e-195
-3.14281e-195
-6.03039e-195
4.10527e-194
-1.08991e-193
1.33019e-193
2.03294e-193
-1.53823e-192
4.1453e-192
-5.00879e-192
-8.10046e-192
5.89608e-191
-1.53977e-190
1.67662e-190
3.71016e-190
-2.29711e-189
5.54178e-189
-4.70475e-189
-1.80602e-188
8.95382e-188
-1.89488e-187
8.50439e-188
8.74487e-187
-3.41333e-186
5.92032e-186
1.35721e-186
-4.04772e-185
1.23559e-184
-1.5471e-184
-2.50691e-184
1.74519e-183
-4.07024e-183
2.41027e-183
1.69845e-182
-6.83092e-182
1.12521e-181
5.96032e-182
-8.65225e-181
2.33173e-180
-2.00829e-180
-7.84504e-180
3.61703e-179
-6.34295e-179
-2.41586e-179
4.5389e-178
-1.22483e-177
9.60353e-178
4.46049e-177
-1.90288e-176
2.9756e-176
2.58231e-176
-2.53464e-175
5.87485e-175
-2.0064e-175
-2.91598e-174
9.60871e-174
-1.02706e-173
-2.76985e-173
1.39792e-172
-2.31834e-172
-1.74433e-172
1.86211e-171
-4.17084e-171
5.92538e-172
2.29915e-170
-6.68301e-170
4.76591e-170
2.63677e-169
-9.96533e-169
1.1421e-168
2.7851e-168
-1.416e-167
2.13691e-167
2.63819e-167
-1.94744e-166
3.56602e-166
2.07786e-166
-2.62354e-165
5.56856e-165
9.82726e-166
-3.49729e-164
8.33152e-164
-7.518e-165
-4.65482e-163
1.21062e-162
-3.17275e-163
-6.23439e-162
1.72255e-161
-6.19113e-162
-8.45383e-161
2.41149e-160
-9.43971e-161
-1.16481e-159
3.32868e-159
-1.20288e-159
-1.63175e-158
4.52916e-158
-1.21497e-158
-2.3181e-157
6.0587e-157
-6.46977e-158
-3.32221e-156
7.92595e-156
1.07224e-156
-4.76928e-155
1.00507e-154
4.86016e-155
-6.80157e-154
1.21769e-153
1.20951e-153
-9.54793e-153
1.37418e-152
2.46906e-152
-1.30576e-151
1.36989e-151
4.50347e-151
-1.718e-150
1.03212e-150
7.56311e-150
-2.13737e-149
1.05538e-150
1.18207e-148
-2.44481e-148
-1.74195e-148
1.72014e-147
-2.42804e-147
-4.86785e-147
2.31142e-146
-1.76344e-146
-9.52372e-146
2.81014e-145
-3.27155e-147
-1.5611e-144
2.95009e-144
3.18845e-144
-2.23176e-143
2.33441e-143
8.12692e-143
-2.76992e-142
4.86611e-143
1.44698e-141
-2.84016e-141
-2.98935e-141
2.09236e-140
-1.98851e-140
-8.10436e-140
2.48421e-139
2.35111e-140
-1.4058e-138
2.22662e-138
4.01372e-138
-1.88368e-137
8.86123e-138
8.87219e-137
-1.91564e-136
-1.78295e-136
1.32901e-135
-1.12082e-135
-5.49188e-135
1.4616e-134
7.4047e-135
-9.07359e-134
9.70265e-134
3.46755e-133
-1.04173e-132
-3.41422e-133
6.13589e-132
-7.05111e-132
-2.30038e-131
7.08278e-131
2.39702e-131
-4.15047e-130
4.46918e-130
1.61684e-129
-4.60374e-129
-2.46061e-129
2.79743e-128
-2.38948e-128
-1.18335e-127
2.81646e-127
2.69327e-127
-1.84662e-126
8.96713e-127
8.7149e-126
-1.55649e-125
-2.72528e-125
1.15754e-124
5.57631e-126
-6.20353e-124
7.00326e-124
2.46762e-123
-6.54488e-123
-5.5765e-123
4.08232e-122
-1.61089e-122
-1.97261e-121
2.99805e-121
7.13902e-121
-2.33527e-120
-1.28652e-120
1.3581e-119
-7.23118e-120
-6.37089e-119
1.01762e-118
2.3178e-118
-7.57918e-118
-4.7504e-118
4.40019e-117
-1.6766e-117
-2.13084e-116
2.82692e-116
8.49185e-116
-2.22381e-115
-2.43608e-115
1.3619e-114
9.1561e-116
-7.10733e-114
5.44529e-114
3.21486e-113
-5.40079e-113
-1.22309e-112
3.73291e-112
3.396e-112
-2.17163e-111
-1.164e-112
1.11966e-110
-7.50015e-111
-5.18425e-110
7.44831e-110
2.13063e-109
-5.22902e-109
-7.37324e-109
3.13626e-108
1.74138e-108
-1.69935e-107
1.61054e-108
8.50288e-107
-5.8283e-107
-3.95769e-106
5.17877e-106
1.70815e-105
-3.53237e-105
-6.72226e-105
2.12271e-104
2.30199e-104
-1.17801e-103
-5.86403e-104
6.17036e-103
1.11199e-104
-3.08654e-102
1.28117e-102
1.48436e-101
-1.24504e-101
-6.88831e-101
8.83837e-101
3.08916e-100
-5.4977e-100
-1.33813e-99
3.17134e-99
5.58265e-99
-1.74073e-98
-2.2291e-98
9.22184e-98
8.4134e-98
-4.75756e-97
-2.92607e-97
2.40497e-96
8.81687e-97
-1.19669e-95
-1.8482e-96
5.88244e-95
-1.69267e-96
-2.86494e-94
5.3609e-95
1.38588e-93
-4.47064e-94
-6.67264e-93
2.90778e-93
3.20334e-92
-1.68628e-92
-1.53559e-91
9.11701e-92
7.35883e-91
-4.68567e-91
-3.52819e-90
2.30979e-90
1.69315e-89
-1.09546e-89
-8.13333e-89
4.99135e-89
3.90963e-88
-2.17059e-88
-1.87933e-87
8.8765e-88
9.02439e-87
-3.30399e-87
-4.32302e-86
1.02692e-86
2.06241e-85
-1.79866e-86
-9.77909e-85
-8.31528e-86
4.59748e-84
1.28966e-84
-2.13699e-83
-1.07358e-83
9.78701e-83
7.40422e-83
-4.39717e-82
-4.63171e-82
1.92694e-81
2.7187e-81
-8.16931e-81
-1.52122e-80
3.30845e-80
8.17842e-80
-1.25198e-79
-4.24057e-79
4.22824e-79
2.12284e-78
-1.11849e-78
-1.02489e-77
8.86545e-79
4.7562e-77
1.68346e-77
-2.10845e-76
-1.74803e-76
8.83136e-76
1.22908e-75
-3.4253e-75
-7.35468e-75
1.17907e-74
3.97695e-74
-3.20174e-74
-1.98461e-73
3.2844e-74
9.18482e-73
3.92853e-73
-3.91659e-72
-4.17321e-72
1.50604e-71
2.83701e-71
-4.94032e-71
-1.60011e-70
1.14529e-70
7.95268e-70
3.82276e-71
-3.5289e-69
-2.69617e-69
1.37787e-68
2.21852e-68
-4.46618e-68
-1.32574e-67
9.57492e-68
6.62631e-67
1.03295e-67
-2.84589e-66
-2.78462e-66
1.02383e-65
2.08723e-65
-2.72379e-65
-1.152e-64
1.86814e-65
5.21234e-64
3.86152e-64
-1.9265e-63
-3.45799e-63
5.1742e-63
1.99287e-62
-3.47378e-63
-8.98594e-62
-7.27126e-62
3.17177e-61
6.31326e-61
-7.31458e-61
-3.46961e-60
-4.3469e-61
1.44662e-59
1.71367e-59
-4.37584e-59
-1.20564e-58
5.58284e-59
5.76374e-58
4.02604e-58
-2.0029e-57
-3.98382e-57
3.94511e-57
2.14601e-56
8.34556e-57
-8.09358e-56
-1.31555e-55
1.83383e-55
7.7641e-55
1.78472e-55
-3.04071e-54
-4.53596e-54
7.03472e-54
2.78888e-53
6.28879e-54
-1.08189e-52
-1.6695e-52
2.30795e-52
9.98589e-52
3.75549e-52
-3.62887e-51
-6.47478e-51
6.12519e-51
3.51309e-50
2.36072e-50
-1.11307e-49
-2.53989e-49
9.47229e-50
1.17489e-48
1.31032e-48
-2.88478e-48
-9.56713e-48
-2.4054e-48
3.52637e-47
6.26289e-47
-4.81402e-47
-3.26354e-46
-3.05825e-46
8.42898e-46
2.54026e-45
5.90367e-46
-9.25625e-45
-1.70526e-44
9.75447e-45
8.37507e-44
9.6772e-44
-1.7541e-43
-6.72281e-43
-4.1512e-43
1.97134e-42
4.94063e-42
5.43926e-43
-1.85432e-41
-3.37806e-41
1.48115e-41
1.58029e-40
2.16801e-40
-2.38181e-40
-1.26499e-39
-1.31285e-39
2.57864e-39
9.71787e-39
7.53361e-39
-2.39215e-38
-7.27421e-38
-4.13115e-38
2.0364e-37
5.36842e-37
2.21752e-37
-1.63845e-36
-3.94243e-36
-1.23965e-36
1.26433e-35
2.89996e-35
8.04772e-36
-9.4198e-35
-2.14385e-34
-6.5491e-35
6.78232e-34
1.59235e-33
6.31967e-34
-4.69719e-33
-1.18348e-32
-6.45987e-33
3.09223e-32
8.7352e-32
6.50794e-32
-1.88882e-31
-6.33416e-31
-6.27074e-31
1.01532e-30
4.44841e-30
5.71375e-30
-4.10352e-30
-2.96703e-29
-4.89188e-29
2.14629e-30
1.82349e-28
3.90543e-28
1.97502e-28
-9.74419e-28
-2.87049e-27
-2.88614e-27
3.84504e-27
1.89728e-26
2.90835e-26
-1.70616e-27
-1.07368e-25
-2.39602e-25
-1.70283e-25
4.53958e-25
1.65338e-24
2.25305e-24
-5.36419e-25
-9.15645e-24
-1.97325e-23
-1.48208e-23
3.34151e-23
1.31358e-22
1.99552e-22
2.69124e-23
-6.23228e-22
-1.60781e-21
-1.78522e-21
1.13133e-21
8.88586e-21
1.81055e-20
1.47101e-20
-2.47784e-20
-1.11783e-19
-1.97121e-19
-1.20611e-19
3.56929e-19
1.31152e-18
2.15363e-18
1.14394e-18
-4.22119e-18
-1.46933e-17
-2.41127e-17
-1.42392e-17
4.21847e-17
1.57328e-16
2.75848e-16
2.14812e-16
-3.28838e-16
-1.57255e-15
-3.13455e-15
-3.32289e-15
1.15595e-15
1.37917e-14
3.36671e-14
4.75123e-14
2.24727e-14
-8.92737e-14
-3.16465e-13
-5.91064e-13
-6.40177e-13
7.59506e-14
2.21323e-12
5.95176e-12
9.82184e-12
9.21585e-12
-4.29193e-12
-4.05242e-11
-1.02067e-10
-1.67303e-10
-1.67882e-10
2.59352e-11
5.82781e-10
1.60622e-09
2.906e-09
3.64309e-09
1.95945e-09
-5.09579e-09
-2.07685e-08
-4.61376e-08
-7.52611e-08
-8.79204e-08
-4.1777e-08
1.3097e-07
5.12685e-07
1.16039e-06
2.01916e-06
2.77463e-06
2.64695e-06
1.65361e-07
-6.97217e-06
-2.17527e-05
-4.70866e-05
-8.39602e-05
-0.000127899
-0.000163066
-0.000153353
-3.0022e-05
0.000324129
0.00109344
0.00254948
0.00506997
0.00915341
0.0154251
0.0246306
0.0376123
0.0552674
0.0784868
0.108076
0.144667
0.188624
0.239962
0.298281
0.362736
0.43204
0.50452
0.578212
0.650987
0.720712
0.785407
0.843402
0.893454
0.934834
0.967349
0.991328
1.00754
1.0171
1.02132
1.02159
1.01923
1.01543
1.01114
1.00705
1.00361
1.00102
0.999319
0.998407
0.998111
0.998234
0.998593
0.999035
0.999455
0.999791
1.00002
1.00015
1.00019
1.00018
1.00014
1.00009
1.00004
1.00001
0.999989
0.999981
0.99998
0.999984
0.99999
0.999995
0.999999
1
1
1
1
1
1
1
1
1
1
1
1
1
1
1
1
1
1
1
1
1
1
1
1
1
1
0.999999
0.999999
0.999998
0.999997
0.999997
1
1.00001
1.00002
1.00005
1.00008
1.00013
1.00016
1.00015
1.00003
0.999676
0.998907
0.997451
0.99493
0.990847
0.984575
0.975369
0.962388
0.944733
0.921513
0.891924
0.855333
0.811376
0.760038
0.701719
0.637264
0.56796
0.49548
0.421788
0.349013
0.279288
0.214593
0.156598
0.106546
0.0651665
0.0326508
0.00867172
-0.00754288
-0.0171022
-0.0213218
-0.0215877
-0.0192317
-0.0154305
-0.0111374
-0.00704902
-0.00360576
-0.00101944
0.000680738
0.00159326
0.00188947
0.00176575
0.00140731
0.000965053
0.000545213
0.000209106
-1.99842e-05
-0.000146285
-0.000190274
-0.000178799
-0.000137786
-8.78853e-05
-4.2749e-05
-9.29719e-06
1.08431e-05
1.94467e-05
1.98931e-05
1.5785e-05
1.00968e-05
4.81294e-06
9.32508e-07
-1.31467e-06
-2.17571e-06
-2.10354e-06
-1.55895e-06
-8.9903e-07
-3.40264e-07
2.82822e-08
2.07052e-07
2.43718e-07
1.98856e-07
1.24446e-07
5.46849e-08
5.7195e-09
-1.98019e-08
-2.68254e-08
-2.28273e-08
-1.45362e-08
-6.4643e-09
-7.70005e-10
2.15989e-09
2.92279e-09
2.42972e-09
1.48337e-09
6.01129e-10
1.10255e-11
-2.65448e-10
-3.12118e-10
-2.37852e-10
-1.30452e-10
-4.10036e-11
1.23559e-11
3.25075e-11
3.1208e-11
2.06247e-11
9.25742e-12
1.21091e-12
-2.73653e-12
-3.57e-12
-2.75107e-12
-1.476e-12
-4.26772e-13
1.7108e-13
3.70322e-13
3.29058e-13
1.98164e-13
7.38602e-14
-4.5388e-15
-3.60399e-14
-3.65873e-14
-2.38546e-14
-1.00449e-14
-7.07999e-16
3.41227e-15
3.87617e-15
2.65612e-15
1.18512e-15
1.49553e-16
-3.26404e-16
-3.97823e-16
-2.78154e-16
-1.25764e-16
-1.73738e-17
3.24338e-17
3.98903e-17
2.75996e-17
1.21557e-17
1.39681e-18
-3.35889e-18
-3.90859e-18
-2.59526e-18
-1.06745e-18
-5.91228e-20
3.6753e-19
3.13101e-19
)
;

boundaryField
{
    sides
    {
        type            zeroGradient;
    }
    empty
    {
        type            empty;
    }
}


// ************************************************************************* //
