/*--------------------------------*- C++ -*----------------------------------*\
| =========                 |                                                 |
| \\      /  F ield         | OpenFOAM: The Open Source CFD Toolbox           |
|  \\    /   O peration     | Version:  2312                                  |
|   \\  /    A nd           | Website:  www.openfoam.com                      |
|    \\/     M anipulation  |                                                 |
\*---------------------------------------------------------------------------*/
FoamFile
{
    version     2.0;
    format      ascii;
    arch        "LSB;label=32;scalar=64";
    class       volScalarField;
    location    "0.6";
    object      T;
}
// * * * * * * * * * * * * * * * * * * * * * * * * * * * * * * * * * * * * * //

dimensions      [0 0 0 1 0 0 0];

internalField   nonuniform List<scalar> 
1000
(
0
0
0
0
0
0
0
0
0
0
0
0
0
0
0
0
0
0
0
0
0
0
0
0
0
0
0
0
0
0
0
0
0
0
0
0
0
0
0
0
0
0
0
0
0
0
0
0
0
0
0
0
0
0
0
0
0
0
0
0
0
0
0
0
0
0
0
0
0
0
0
0
0
0
0
0
0
0
0
0
0
0
0
0
0
0
0
0
0
0
0
0
0
0
0
0
0
0
0
0
0
0
0
0
0
0
0
0
0
0
0
0
0
0
0
0
0
0
0
0
0
0
0
0
0
0
0
0
0
0
0
0
0
0
0
0
0
0
0
0
0
0
0
0
0
0
0
0
0
0
0
0
0
0
0
0
0
0
0
0
0
0
0
0
0
0
0
0
0
0
0
0
0
0
0
0
0
0
0
0
0
0
0
0
0
0
0
0
0
0
0
0
0
0
0
0
0
0
0
0
0
0
0
0
0
0
0
0
0
0
0
0
0
0
0
0
0
0
0
0
0
0
0
0
0
0
0
0
0
0
0
0
0
0
0
0
0
0
0
0
0
0
0
0
0
0
0
0
0
0
0
0
0
0
0
0
0
0
0
0
0
0
0
0
0
0
0
0
0
0
0
0
0
0
0
0
0
0
0
0
0
0
0
0
0
0
0
0
0
0
0
0
0
0
0
0
0
0
0
0
0
0
0
0
0
0
0
0
0
0
0
0
0
0
0
0
0
0
0
0
0
0
0
0
0
0
0
0
0
0
0
0
0
0
0
0
0
0
0
0
0
0
0
0
0
0
0
0
0
0
0
0
0
0
0
0
0
0
0
0
0
0
0
0
0
0
0
0
0
0
0
0
0
0
0
0
0
0
0
0
0
0
0
0
0
0
0
0
0
0
0
0
0
0
0
0
0
0
0
0
0
0
0
0
3.65475e-48
-2.41306e-32
1.45984e-24
-8.73241e-21
5.03833e-19
-1.43987e-18
-2.72984e-18
2.41119e-17
-1.61322e-16
5.40431e-17
1.17736e-15
-3.25708e-15
3.23463e-15
3.84973e-15
-1.98338e-14
3.37886e-14
-1.78572e-14
-6.02057e-14
1.74814e-13
-1.88557e-13
-1.17196e-13
7.49139e-13
-1.03871e-12
-2.20644e-13
3.22475e-12
-4.79775e-12
-9.72778e-13
1.43065e-11
-1.81769e-11
-1.31993e-11
6.44657e-11
-4.60822e-11
-1.13154e-10
2.47022e-10
2.09464e-11
-6.45209e-10
5.50777e-10
1.15971e-09
-2.28585e-09
-1.23096e-09
6.45817e-09
-9.70083e-10
-1.54857e-08
1.04022e-08
3.26361e-08
-3.67299e-08
-6.75897e-08
1.05053e-07
1.39599e-07
-2.57729e-07
-3.10389e-07
5.67581e-07
7.88647e-07
-1.16859e-06
-2.04984e-06
1.98503e-06
5.30108e-06
-2.08285e-06
-1.27308e-05
-2.35297e-06
2.65126e-05
2.24439e-05
-4.027e-05
-7.86594e-05
1.38396e-05
0.000181156
0.000148898
-0.000215144
-0.000548174
-0.000216425
0.000853488
0.00154181
0.000477543
-0.00242647
-0.00459068
-0.00259634
0.00469547
0.0133691
0.0141582
0.0019423
-0.024055
-0.052747
-0.0617902
-0.0368174
0.0341985
0.152542
0.30598
0.473569
0.632966
0.767029
0.867301
0.933857
0.972612
0.991833
0.999124
1
1
1
1
1
1
1
1
1
1
1
1
1
1
1
1
1
1
1
1
1
1
1
1
1
1
1
1
1
1
1
1
1
1
1
1
1
1
1
1
1
1
1
1
1
1
1
1
1
1
1
1
1
1
1
1
0.999999
0.999999
1
1
0.999998
0.999995
1
1.00001
1
0.999973
0.999978
1.00004
1.00008
0.999985
0.999817
0.999851
1.00022
1.00055
1.00022
0.999143
0.998452
0.999518
1.00243
1.00459
1.0026
0.995303
0.986634
0.985855
0.998083
1.02408
1.05275
1.06174
1.0367
0.965617
0.847227
0.693782
0.526222
0.366877
0.23287
0.132644
0.0661202
0.0273826
0.00816768
0.000877246
3.6718e-14
2.15271e-16
2.11222e-16
2.10287e-16
2.06924e-16
1.99336e-16
1.86217e-16
1.67557e-16
1.44797e-16
1.20263e-16
9.63264e-17
7.47577e-17
5.65017e-17
4.1779e-17
3.03355e-17
2.16864e-17
1.52899e-17
1.0642e-17
7.31602e-18
4.96932e-18
3.33578e-18
2.21354e-18
1.45244e-18
9.42673e-19
6.05352e-19
3.8473e-19
2.42046e-19
1.50765e-19
9.29831e-20
5.67846e-20
3.43385e-20
2.05611e-20
1.21902e-20
7.15569e-21
4.15864e-21
2.39273e-21
1.36291e-21
7.68539e-22
4.29029e-22
2.37102e-22
1.29723e-22
7.02669e-23
3.76833e-23
2.00093e-23
1.05203e-23
5.47714e-24
2.82387e-24
1.44187e-24
7.29172e-25
3.65248e-25
1.81231e-25
8.90837e-26
4.33829e-26
2.09329e-26
1.00084e-26
4.74202e-27
2.22668e-27
1.03631e-27
4.78066e-28
2.18622e-28
9.91161e-29
4.45528e-29
1.98574e-29
8.77649e-30
3.84689e-30
1.67233e-30
7.211e-31
3.08435e-31
1.30877e-31
5.50967e-32
2.30138e-32
9.53858e-33
3.92324e-33
1.60142e-33
6.48779e-34
2.60887e-34
1.04137e-34
4.12649e-35
1.62336e-35
6.3407e-36
2.4591e-36
9.47029e-37
3.62181e-37
1.3756e-37
5.1891e-38
1.94425e-38
7.23602e-39
2.67523e-39
9.82574e-40
3.58538e-40
1.29987e-40
4.68252e-41
1.67612e-41
5.96206e-42
2.10756e-42
7.40423e-43
2.58535e-43
8.97263e-44
3.09532e-44
1.06145e-44
3.61845e-45
1.2263e-45
4.13187e-46
1.38417e-46
4.61048e-47
1.527e-47
5.02908e-48
1.64708e-48
5.36458e-49
1.73769e-49
5.59814e-50
1.79378e-50
5.71697e-51
1.8124e-51
5.71545e-52
1.79297e-52
5.59554e-53
1.73729e-53
5.36638e-54
1.64925e-54
5.0432e-55
1.53446e-55
4.64568e-56
1.39961e-56
4.19605e-57
1.2519e-57
3.71714e-58
1.09843e-58
3.23054e-59
9.45658e-60
2.75526e-60
7.99053e-61
2.30668e-61
6.62847e-62
1.89612e-62
5.39957e-63
1.53076e-63
4.32042e-64
1.21402e-64
3.39641e-65
9.46071e-66
2.62391e-66
7.24616e-67
1.99257e-67
5.45607e-68
1.48771e-68
4.03961e-69
1.09234e-69
2.94161e-70
7.88917e-71
2.10722e-71
5.60573e-72
1.48528e-72
3.91969e-73
1.03032e-73
2.69763e-74
7.03543e-75
1.82772e-75
4.72988e-76
1.21933e-76
3.13138e-77
8.0113e-78
2.04189e-78
5.18484e-79
1.31166e-79
3.30599e-80
8.30202e-81
2.0772e-81
5.17841e-82
1.28631e-82
3.18374e-83
7.852e-84
1.92967e-84
4.72558e-85
1.1532e-85
2.80443e-86
6.7964e-87
1.64142e-87
3.95069e-88
9.47653e-89
2.26547e-89
5.39766e-90
1.28175e-90
3.03357e-91
7.15603e-92
1.68253e-92
3.94307e-93
9.21076e-94
2.14464e-94
4.97756e-95
1.15158e-95
2.65576e-96
6.1054e-97
1.39918e-97
3.19652e-98
7.28002e-99
1.65289e-99
3.74131e-100
8.44256e-101
1.89935e-101
4.26013e-102
9.52653e-103
2.12397e-103
4.72138e-104
1.04642e-104
2.3124e-105
5.09506e-106
1.11936e-106
2.45208e-107
5.35607e-108
1.16658e-108
2.53362e-109
5.48702e-110
1.18497e-110
2.55186e-111
5.48018e-112
1.17361e-112
2.50643e-113
5.33814e-114
1.1338e-114
2.40159e-115
5.07324e-116
1.06881e-116
2.2457e-117
4.7059e-118
9.83514e-119
2.05008e-119
4.26205e-120
8.83751e-121
1.82772e-121
3.77021e-122
7.75712e-123
1.59192e-123
3.25861e-124
6.65336e-125
1.35503e-125
2.75275e-126
5.57821e-127
1.12756e-127
2.27357e-128
4.57303e-129
9.17556e-130
1.83653e-130
3.66697e-131
7.30404e-132
1.45135e-132
2.87698e-133
5.68939e-134
1.12243e-134
2.20916e-135
4.33781e-136
8.49758e-137
1.66076e-137
3.23822e-138
6.29946e-139
1.22264e-139
2.36755e-140
4.57412e-141
8.81717e-142
1.69578e-142
3.25409e-143
6.23042e-144
1.19024e-144
2.26876e-145
4.315e-146
8.18874e-147
1.5506e-147
2.92979e-148
5.52366e-149
1.03915e-149
1.95072e-150
3.65408e-151
6.83022e-152
1.27399e-152
2.37127e-153
4.40431e-154
8.16324e-155
1.50987e-155
2.78685e-156
5.13318e-157
9.43546e-158
1.7308e-158
3.16842e-159
5.78832e-160
1.05531e-160
1.92014e-161
3.48665e-162
6.31852e-163
1.14276e-163
2.06268e-164
3.71576e-165
6.68049e-166
1.19872e-166
2.14672e-167
3.83697e-168
6.84479e-169
1.21869e-169
2.16566e-170
3.84109e-171
6.79972e-172
1.20144e-172
2.11881e-173
3.7296e-174
6.55266e-175
1.14911e-175
2.01139e-176
3.51418e-177
6.12844e-178
1.06679e-178
1.85356e-179
3.21474e-180
5.56536e-181
9.61732e-182
1.65894e-182
2.85646e-183
4.90961e-184
8.42346e-185
1.44266e-185
2.46642e-186
4.20926e-187
7.17102e-188
1.21954e-188
2.0704e-189
3.50881e-190
5.93626e-191
1.00258e-191
1.69035e-192
2.84508e-193
4.78048e-194
8.01883e-195
1.34282e-195
2.24487e-196
3.74659e-197
6.24245e-198
1.03837e-198
1.72435e-199
2.85879e-200
4.73177e-201
7.81902e-202
1.28994e-202
2.12462e-203
3.49372e-204
5.73577e-205
9.40146e-206
1.53852e-206
2.5137e-207
4.10047e-208
6.67827e-209
1.08594e-209
1.76305e-210
2.85786e-211
4.62527e-212
7.47404e-213
1.20587e-213
1.94254e-214
3.12443e-215
5.01769e-216
8.04584e-217
1.28818e-217
2.0593e-218
3.28704e-219
5.23883e-220
8.33701e-221
1.32475e-221
2.10188e-222
3.32994e-223
5.26768e-224
8.32071e-225
1.31238e-225
2.06691e-226
3.25049e-227
5.10436e-228
8.00392e-229
1.25324e-229
1.95947e-230
3.05927e-231
4.76953e-232
7.42525e-233
1.15433e-233
1.79196e-234
2.77789e-235
4.3002e-236
6.64739e-237
1.02614e-237
1.58181e-238
2.435e-239
3.74319e-240
5.74623e-241
8.809e-242
1.34857e-242
2.06171e-243
3.14766e-244
4.79908e-245
7.30702e-246
1.11106e-246
1.68712e-247
2.55844e-248
3.87456e-249
5.85991e-250
8.85081e-251
1.33506e-251
)
;

boundaryField
{
    sides
    {
        type            zeroGradient;
    }
    empty
    {
        type            empty;
    }
}


// ************************************************************************* //
