/*--------------------------------*- C++ -*----------------------------------*\
| =========                 |                                                 |
| \\      /  F ield         | OpenFOAM: The Open Source CFD Toolbox           |
|  \\    /   O peration     | Version:  2312                                  |
|   \\  /    A nd           | Website:  www.openfoam.com                      |
|    \\/     M anipulation  |                                                 |
\*---------------------------------------------------------------------------*/
FoamFile
{
    version     2.0;
    format      ascii;
    arch        "LSB;label=32;scalar=64";
    class       volScalarField;
    location    "1.5";
    object      T;
}
// * * * * * * * * * * * * * * * * * * * * * * * * * * * * * * * * * * * * * //

dimensions      [0 0 0 1 0 0 0];

internalField   nonuniform List<scalar> 
1000
(
0
0
0
0
0
0
0
0
0
0
0
0
0
0
0
0
0
0
0
0
0
0
0
0
0
0
0
0
0
0
0
0
0
0
0
0
0
0
0
0
0
0
0
0
0
0
0
0
0
0
0
0
0
0
0
0
0
0
0
0
0
0
0
0
0
0
0
0
0
0
0
0
0
0
0
0
0
0
0
0
0
0
0
0
0
0
9.88131e-323
-1.7984e-321
3.34532e-320
-6.21273e-319
1.14953e-317
-2.11889e-316
3.89086e-315
-7.11749e-314
1.29703e-312
-2.35458e-311
4.25804e-310
-7.67074e-309
1.37655e-307
-2.46077e-306
4.38196e-305
-7.77289e-304
1.37344e-302
-2.41737e-301
4.2382e-300
-7.40151e-299
1.28752e-297
-2.23092e-296
3.85035e-295
-6.61912e-294
1.1334e-292
-1.93303e-291
3.28373e-290
-5.55604e-289
9.36323e-288
-1.57162e-286
2.62737e-285
-4.3747e-284
7.25473e-283
-1.19822e-281
1.97101e-280
-3.22906e-279
5.26856e-278
-8.56114e-277
1.38545e-275
-2.23288e-274
3.58387e-273
-5.72853e-272
9.11877e-271
-1.44553e-269
2.28196e-268
-3.58737e-267
5.61599e-266
-8.75496e-265
1.35911e-263
-2.10098e-262
3.23409e-261
-4.95724e-260
7.56623e-259
-1.14992e-257
1.74018e-256
-2.62217e-255
3.93421e-254
-5.87734e-253
8.74229e-252
-1.29475e-250
1.90921e-249
-2.80303e-248
4.09733e-247
-5.96303e-246
8.64014e-245
-1.2464e-243
1.79006e-242
-2.55948e-241
3.64333e-240
-5.16303e-239
7.28388e-238
-1.02298e-236
1.43026e-235
-1.99065e-234
2.75807e-233
-3.80397e-232
5.22257e-231
-7.13742e-230
9.7096e-229
-1.3148e-227
1.77217e-226
-2.37759e-225
3.175e-224
-4.2201e-223
5.58296e-222
-7.35127e-221
9.63409e-220
-1.25661e-218
1.63128e-217
-2.10758e-216
2.70994e-215
-3.46778e-214
4.4162e-213
-5.59689e-212
7.05888e-211
-8.85951e-210
1.10652e-208
-1.37525e-207
1.70083e-206
-2.09313e-205
2.56316e-204
-3.12316e-203
3.78653e-202
-4.56783e-201
5.48266e-200
-6.54752e-199
7.77963e-198
-9.19662e-197
1.08162e-195
-1.2656e-194
1.47324e-193
-1.70611e-192
1.96554e-191
-2.25264e-190
2.56818e-189
-2.91256e-188
3.28572e-187
-3.68709e-186
4.1155e-185
-4.56919e-184
5.04571e-183
-5.54195e-182
6.0541e-181
-6.5777e-180
7.10762e-179
-7.63818e-178
8.16321e-177
-8.67613e-176
9.17012e-175
-9.6382e-174
1.00734e-172
-1.04691e-171
1.08188e-170
-1.11167e-169
1.13577e-168
-1.15373e-167
1.16522e-166
-1.17002e-165
1.168e-164
-1.15917e-163
1.14365e-162
-1.12167e-161
1.09359e-160
-1.05985e-159
1.02099e-158
-9.77624e-158
9.3043e-157
-8.8012e-156
8.27432e-155
-7.73109e-154
7.17879e-153
-6.62446e-152
6.07466e-151
-5.53543e-150
5.01213e-149
-4.5094e-148
4.03112e-147
-3.58036e-146
3.15939e-145
-2.76975e-144
2.41224e-143
-2.08701e-142
1.79365e-141
-1.53123e-140
1.29841e-139
-1.09355e-138
9.14741e-138
-7.59927e-137
6.2696e-136
-5.13667e-135
4.17905e-134
-3.37604e-133
2.708e-132
-2.15666e-131
1.70522e-130
-1.33853e-129
1.04303e-128
-8.06805e-128
6.19462e-127
-4.72077e-126
3.57058e-125
-2.6802e-124
1.9965e-123
-1.47579e-122
1.08243e-121
-7.87723e-121
5.68739e-120
-4.07372e-119
2.89453e-118
-2.04007e-117
1.42613e-116
-9.88759e-116
6.79839e-115
-4.63524e-114
3.13369e-113
-2.1005e-112
1.39583e-111
-9.19509e-111
6.00412e-110
-3.88576e-109
2.49228e-108
-1.58405e-107
9.97586e-107
-6.22442e-106
3.84741e-105
-2.35567e-104
1.42852e-103
-8.57903e-103
5.10173e-102
-3.0038e-101
1.75083e-100
-1.01014e-99
5.76803e-99
-3.25924e-98
1.82217e-97
-1.0078e-96
5.51332e-96
-2.98282e-95
1.59568e-94
-8.43903e-94
4.41148e-93
-2.27897e-92
1.16323e-91
-5.86511e-91
2.92058e-90
-1.43596e-89
6.96927e-89
-3.33804e-88
1.57736e-87
-7.35155e-87
3.3783e-86
-1.53017e-85
6.82891e-85
-3.00166e-84
1.29895e-83
-5.53152e-83
2.3169e-82
-9.54005e-82
3.85939e-81
-1.53297e-80
5.97425e-80
-2.28256e-79
8.54206e-79
-3.12795e-78
1.11946e-77
-3.91037e-77
1.33105e-76
-4.40668e-76
1.41563e-75
-4.39995e-75
1.31816e-74
-3.7873e-74
1.03626e-73
-2.67179e-73
6.38e-73
-1.36607e-72
2.4314e-72
-2.69973e-72
-3.17318e-72
3.29719e-71
-1.34367e-70
4.09543e-70
-1.00844e-69
1.92613e-69
-2.12305e-69
-3.0578e-69
2.74001e-68
-1.00494e-67
2.59283e-67
-4.65641e-67
3.09583e-67
1.69299e-66
-9.04364e-66
2.64404e-65
-5.0034e-65
3.32529e-65
1.85543e-64
-9.42746e-64
2.50213e-63
-3.69462e-63
-1.67756e-63
2.95276e-62
-9.93946e-62
1.80998e-61
-3.79531e-62
-9.89556e-61
3.74428e-60
-6.98778e-60
1.04881e-60
3.94498e-59
-1.39409e-58
2.22088e-58
1.22825e-58
-1.75176e-57
4.85227e-57
-4.67422e-57
-1.48187e-56
7.36416e-56
-1.33437e-55
-4.44287e-56
9.29396e-55
-2.42415e-54
1.37524e-54
1.05392e-53
-3.72902e-53
3.92362e-53
1.14642e-52
-5.32947e-52
7.10589e-52
1.30277e-51
-7.4129e-51
1.07116e-50
1.70223e-50
-1.02515e-49
1.41717e-49
2.6409e-49
-1.40889e-48
1.60832e-48
4.54559e-48
-1.88348e-47
1.35406e-47
7.88688e-47
-2.34536e-46
1.66518e-47
1.28409e-45
-2.50752e-45
-2.55425e-45
1.85428e-44
-1.83904e-44
-7.1049e-44
2.20355e-43
3.10969e-44
-1.25805e-42
1.78032e-42
4.17273e-42
-1.58068e-41
-5.35135e-44
8.55079e-41
-1.14817e-40
-3.09526e-40
1.00657e-39
4.20675e-40
-5.85764e-39
4.46501e-39
2.60752e-38
-5.12728e-38
-8.47233e-38
3.52105e-37
1.11087e-37
-1.93519e-36
1.09171e-36
9.12409e-36
-1.27762e-35
-3.74638e-35
9.18772e-35
1.30617e-34
-5.49763e-34
-3.42424e-34
2.97049e-33
2.27455e-34
-1.50502e-32
5.27976e-33
7.3171e-32
-5.17735e-32
-3.47247e-31
3.499e-31
1.63143e-30
-2.0327e-30
-7.67827e-30
1.07981e-29
3.65276e-29
-5.36799e-29
-1.76509e-28
2.51214e-28
8.66269e-28
-1.09876e-27
-4.29564e-27
4.37902e-27
2.13221e-26
-1.4855e-26
-1.04633e-25
3.31626e-26
5.00078e-25
5.75272e-26
-2.28505e-24
-1.40391e-24
9.72906e-24
1.1999e-23
-3.69454e-23
-7.83855e-23
1.1302e-22
4.34425e-22
-1.75509e-22
-2.07861e-21
-9.58024e-22
8.36261e-21
1.18361e-20
-2.54891e-20
-7.68265e-20
3.24578e-20
3.67288e-19
2.62179e-19
-1.28121e-18
-2.61864e-18
2.30021e-18
1.39582e-17
8.13309e-18
-4.79521e-17
-9.8794e-17
6.25675e-17
4.98399e-16
4.69416e-16
-1.34346e-15
-3.97494e-15
-7.70195e-16
1.48421e-14
2.7428e-14
-1.34943e-14
-1.32354e-13
-1.77611e-13
2.05441e-13
1.0699e-12
1.18025e-12
-1.92379e-12
-8.25371e-12
-8.77599e-12
1.40104e-11
6.17133e-11
7.44316e-11
-7.5375e-11
-4.3826e-10
-6.70217e-10
1.3926e-10
2.76529e-09
5.77079e-09
3.30039e-09
-1.30111e-08
-4.26484e-08
-5.65191e-08
1.22158e-08
2.27846e-07
5.29054e-07
5.59287e-07
-3.70191e-07
-2.86555e-06
-6.32296e-06
-7.32966e-06
1.13457e-06
2.72439e-05
7.18812e-05
0.000113561
9.17061e-05
-9.80366e-05
-0.000574148
-0.0013802
-0.002321
-0.00273394
-0.00124398
0.00441098
0.0173766
0.0414085
0.0802976
0.137058
0.213042
0.307225
0.415888
0.532868
0.650382
0.760276
0.855407
0.930819
0.984437
1.01713
1.03216
1.03426
1.02853
1.01948
1.01048
1.00346
0.999091
0.99716
0.996958
0.997681
0.998668
0.999511
1.00004
1.00027
1.00029
1.00021
1.0001
1.00002
0.999982
0.999971
0.999977
0.999987
0.999996
1
1
1
1
1
1
1
1
1
1
1
1
1
1
1
1
1
1
1
1
1
1
1
1
1
1
1
1
1
1
1
1
1
1
1
1
1
1
1
1
1
1
1
1
1
0.999999
0.999999
1
1
1.00001
1.00001
0.999999
0.999973
0.999928
0.999886
0.999908
1.0001
1.00057
1.00138
1.00232
1.00273
1.00124
0.995589
0.982623
0.958592
0.919702
0.862942
0.786958
0.692775
0.584112
0.467132
0.349618
0.239724
0.144593
0.0691812
0.0155633
-0.0171274
-0.0321603
-0.0342602
-0.0285255
-0.0194841
-0.0104794
-0.00345514
0.00090915
0.00284032
0.00304178
0.00231886
0.00133154
0.00048904
-4.29721e-05
-0.000271585
-0.000289765
-0.000205751
-0.000102231
-2.36913e-05
1.77511e-05
2.90326e-05
2.34966e-05
1.28073e-05
3.8074e-06
-1.20806e-06
-2.73921e-06
-2.29191e-06
-1.23016e-06
-3.40006e-07
1.32576e-07
2.5608e-07
1.97148e-07
9.39334e-08
1.71281e-08
-1.77229e-08
-2.25277e-08
-1.44672e-08
-5.32835e-09
1.81515e-10
1.98473e-09
1.7015e-09
8.32919e-10
1.62101e-10
-1.33856e-10
-1.67977e-10
-9.99669e-11
-3.07427e-11
5.9508e-12
1.46403e-11
1.02466e-11
3.87608e-12
1.18474e-14
-1.17013e-12
-9.42635e-13
-4.00743e-13
-3.71224e-14
8.88599e-14
8.01403e-14
3.63076e-14
4.87956e-15
-6.63083e-15
-6.41112e-15
-2.96792e-15
-4.34141e-16
4.98289e-16
4.87223e-16
2.21707e-16
2.9826e-17
-3.79321e-17
-3.52524e-17
-1.51732e-17
-1.52058e-18
2.88479e-18
2.41894e-18
9.45487e-19
3.76649e-20
-2.13919e-19
-1.56055e-19
-5.275e-20
3.07582e-21
1.50947e-20
9.34703e-21
2.54129e-21
-5.81222e-22
-9.93409e-22
-5.10901e-22
-9.6488e-23
5.809e-23
5.99766e-23
2.48383e-23
1.92254e-24
-4.49561e-24
-3.26868e-24
-1.02499e-24
9.96878e-26
2.9173e-25
1.57509e-25
3.18685e-26
-1.52769e-26
-1.62478e-26
-6.47898e-27
-3.72931e-28
1.17158e-27
7.76193e-28
2.09841e-28
-4.06801e-29
-6.79532e-29
-3.10924e-29
-3.90095e-30
4.17759e-30
3.20133e-30
9.75589e-31
-9.59976e-32
-2.51636e-31
-1.22488e-31
-1.83646e-32
1.41161e-32
1.14776e-32
3.57012e-33
-2.81294e-34
-8.49368e-34
-4.08919e-34
-5.84376e-35
4.67836e-35
3.63263e-35
1.05929e-35
-1.20373e-36
-2.62829e-36
-1.16522e-36
-1.25137e-37
1.49851e-37
1.01256e-37
2.52052e-38
-5.39688e-39
-7.35018e-39
-2.79932e-39
-1.1168e-40
4.43088e-40
2.44444e-40
4.50294e-41
-2.03866e-41
-1.80944e-41
-5.46864e-42
4.23456e-43
1.15373e-42
4.95597e-43
4.5831e-44
-6.1976e-44
-3.79359e-44
-7.94095e-45
2.53368e-45
2.54602e-45
7.98666e-46
-4.03263e-47
-1.50828e-46
-6.48349e-47
-5.95953e-48
7.74151e-48
4.59065e-48
8.94342e-49
-3.2084e-49
-2.91457e-49
-8.3456e-50
7.78441e-51
1.67223e-50
6.40931e-51
3.00789e-52
-8.61075e-52
-4.35292e-52
-6.29425e-53
3.86588e-53
2.68915e-53
6.07803e-54
-1.38356e-54
-1.52929e-54
-4.65261e-55
2.49012e-56
8.02791e-56
3.12808e-56
1.70848e-57
-3.86844e-57
-1.91889e-57
-2.59524e-58
1.68043e-58
1.09341e-58
2.22648e-59
-6.27643e-60
-5.8399e-60
-1.56473e-60
1.72526e-61
2.93527e-61
9.81024e-62
-4.15153e-64
-1.38853e-62
-5.67633e-63
-4.10777e-64
6.15644e-64
3.08317e-64
4.13011e-65
-2.53169e-65
-1.58735e-65
-2.97931e-66
9.43398e-67
7.79182e-67
1.85308e-67
-3.00869e-68
-3.65965e-68
-1.05183e-68
6.73252e-70
1.64785e-69
5.58878e-70
3.77489e-72
-7.11768e-71
-2.81835e-71
-1.74873e-72
2.94696e-72
1.36034e-72
1.46888e-73
-1.16674e-73
-6.31996e-74
-9.35335e-75
4.39574e-75
2.8374e-75
5.22768e-76
-1.56185e-76
-1.23467e-76
-2.69335e-77
5.14412e-78
5.21907e-78
1.30859e-78
-1.51353e-79
-2.14706e-79
-6.07179e-80
3.59503e-81
8.60906e-81
2.7117e-81
-4.00285e-83
-3.36884e-82
-1.17186e-82
-2.52335e-84
1.28795e-83
4.91895e-84
2.55757e-85
-4.81558e-85
-2.01128e-85
-1.57076e-86
1.76251e-86
8.02892e-87
8.09442e-88
-6.32028e-88
-3.13484e-88
-3.78723e-89
2.22258e-89
1.19897e-89
1.66104e-90
-7.67198e-91
-4.49774e-91
-6.94082e-92
2.60216e-92
1.65675e-92
2.78945e-93
-8.68232e-94
-5.99816e-94
-1.08472e-94
2.85358e-95
2.13624e-95
4.09815e-96
-9.25247e-97
-7.48998e-97
-1.50867e-97
2.96486e-98
2.58701e-98
5.42335e-99
-9.40811e-100
-8.80763e-100
-1.90685e-100
2.96289e-101
2.95721e-101
6.56564e-102
-9.28266e-103
-9.79611e-103
-2.21599e-103
2.90001e-104
3.20282e-104
7.33689e-105
-9.05409e-106
-1.03382e-105
-2.38423e-106
2.82989e-107
3.29523e-107
7.60776e-108
-8.86468e-109
-1.03734e-108
-2.38427e-109
2.78402e-110
3.22548e-110
7.34023e-111
-8.76178e-112
-9.90634e-112
-2.21992e-112
2.75993e-113
3.00516e-113
6.59485e-114
-8.68618e-115
-9.00372e-115
-1.9241e-115
2.72578e-116
2.6639e-116
5.5114e-117
-8.51031e-118
-7.78179e-118
-1.54919e-118
2.63812e-119
2.24394e-119
4.2704e-120
-8.10437e-121
-6.38558e-121
-1.1534e-121
2.46328e-122
1.79275e-122
3.0488e-123
-7.39752e-124
-4.96397e-124
-7.8749e-125
2.19255e-125
1.35509e-125
1.98342e-126
-6.4079e-127
-3.64558e-127
-4.85698e-128
1.84532e-128
9.66124e-129
1.15151e-129
-5.23324e-130
-2.5209e-130
-2.62628e-131
1.46087e-131
6.47292e-132
5.70299e-133
-4.0127e-133
-1.63669e-133
-3.40278e-135
)
;

boundaryField
{
    sides
    {
        type            zeroGradient;
    }
    empty
    {
        type            empty;
    }
}


// ************************************************************************* //
