/*--------------------------------*- C++ -*----------------------------------*\
| =========                 |                                                 |
| \\      /  F ield         | OpenFOAM: The Open Source CFD Toolbox           |
|  \\    /   O peration     | Version:  2312                                  |
|   \\  /    A nd           | Website:  www.openfoam.com                      |
|    \\/     M anipulation  |                                                 |
\*---------------------------------------------------------------------------*/
FoamFile
{
    version     2.0;
    format      ascii;
    arch        "LSB;label=32;scalar=64";
    class       volScalarField;
    location    "1.1";
    object      T;
}
// * * * * * * * * * * * * * * * * * * * * * * * * * * * * * * * * * * * * * //

dimensions      [0 0 0 1 0 0 0];

internalField   nonuniform List<scalar> 
1000
(
0
0
0
0
0
0
0
0
0
0
0
0
0
0
0
0
0
0
0
0
0
0
0
0
0
0
0
0
0
0
0
0
0
0
0
0
0
0
0
0
0
0
0
0
0
0
0
0
0
0
0
0
0
0
0
0
0
0
0
0
0
0
0
0
0
0
0
0
0
0
0
0
0
0
0
0
0
0
0
0
0
0
0
0
0
0
0
0
0
0
0
0
0
0
0
0
0
0
0
0
0
0
0
0
0
0
0
0
0
0
0
0
0
0
0
0
0
0
0
0
0
0
0
0
0
0
0
0
0
0
0
0
0
0
0
0
0
0
0
0
0
0
0
0
0
0
0
0
0
0
0
0
0
0
0
0
0
0
0
0
0
0
0
0
0
0
0
0
0
0
0
0
0
0
0
0
0
0
0
0
0
0
0
0
0
0
0
0
0
0
0
0
0
0
0
0
0
0
0
0
0
0
0
0
0
0
0
0
0
0
0
0
0
0
0
0
0
0
0
0
0
0
0
0
0
0
0
0
0
0
0
0
0
0
0
0
0
0
0
0
0
0
0
0
0
0
0
0
0
0
0
0
0
0
0
0
0
0
0
0
0
0
0
0
0
0
0
0
0
0
0
0
0
0
0
0
0
0
0
0
0
0
0
0
0
0
0
0
0
0
0
0
0
0
0
0
0
0
0
0
0
0
0
0
0
0
0
0
0
0
0
0
0
0
0
0
0
0
0
0
0
0
0
0
0
0
0
0
0
0
0
0
0
0
0
0
0
0
0
0
0
0
0
0
0
0
0
0
0
0
0
0
0
0
0
0
0
0
0
0
0
0
0
0
0
0
0
0
0
0
0
0
0
0
0
0
0
0
0
0
0
0
0
0
0
0
0
0
0
0
0
0
0
0
0
0
0
0
0
0
0
0
0
0
0
0
0
0
0
0
0
0
0
0
0
0
0
0
0
0
0
0
0
0
0
0
0
0
0
0
0
0
0
0
0
0
0
0
0
0
0
0
0
0
0
0
0
0
0
0
3.88145e-32
2.75583e-30
9.79377e-29
2.32289e-27
4.13657e-26
5.89952e-25
7.01922e-24
7.16626e-23
6.40892e-22
5.10043e-21
3.65726e-20
2.38671e-19
1.42937e-18
7.91074e-18
4.07006e-17
1.95667e-16
8.82893e-16
3.7538e-15
1.5091e-14
5.75431e-14
2.08692e-13
7.21682e-13
2.38508e-12
7.54886e-12
2.29248e-11
6.69167e-11
1.88048e-10
5.09516e-10
1.33291e-09
3.37101e-09
8.25195e-09
1.9574e-08
4.5039e-08
1.00627e-07
2.18506e-07
4.61552e-07
9.49178e-07
1.90191e-06
3.71596e-06
7.08444e-06
1.31883e-05
2.39884e-05
4.26596e-05
7.4215e-05
0.000126379
0.000210769
0.000344443
0.000551856
0.000867258
0.00133749
0.00202515
0.00301189
0.00440179
0.00632427
0.00893646
0.0124243
0.017002
0.02291
0.0304098
0.0397771
0.0512918
0.065226
0.0818307
0.10132
0.123858
0.149541
0.17839
0.21034
0.245233
0.28282
0.322764
0.364652
0.408005
0.452297
0.496976
0.541481
0.585268
0.627824
0.668689
0.707466
0.743833
0.777546
0.808446
0.836448
0.861544
0.883789
0.903295
0.920216
0.934741
0.947079
0.957452
0.966084
0.973194
0.978994
0.983679
0.987425
0.990393
0.992722
0.994532
0.995925
0.996989
0.997793
0.998395
0.998843
0.999172
0.999412
0.999586
0.999711
0.9998
0.999862
0.999906
0.999936
0.999957
0.999971
0.999981
0.999988
0.999992
0.999995
0.999997
0.999998
0.999999
0.999999
0.999999
1
1
1
1
1
1
1
1
1
1
1
1
1
0.999999
0.999998
0.999996
0.999993
0.999987
0.999976
0.999957
0.999926
0.999874
0.999789
0.999656
0.999448
0.999133
0.998663
0.997975
0.996988
0.995598
0.993676
0.991064
0.987576
0.982998
0.97709
0.96959
0.960223
0.948708
0.934774
0.918169
0.89868
0.876142
0.850459
0.82161
0.78966
0.754767
0.71718
0.677236
0.635348
0.591995
0.547703
0.503024
0.458519
0.414732
0.372176
0.331311
0.292534
0.256167
0.222454
0.191554
0.163552
0.138456
0.116211
0.096705
0.0797836
0.0652587
0.0529208
0.0425482
0.0339165
0.0268056
0.0210056
0.0163213
0.0125748
0.00960697
0.00727836
0.0054684
0.00407461
0.00301115
0.00220709
0.00160462
0.00115721
0.00082787
0.000587551
0.000413701
0.000289008
0.000200326
0.000137783
9.40394e-05
6.36946e-05
4.28153e-05
2.85643e-05
1.89147e-05
1.24324e-05
8.11164e-06
5.25398e-06
3.37845e-06
2.15685e-06
1.36716e-06
8.60478e-07
5.37778e-07
3.33759e-07
2.05709e-07
1.25918e-07
7.65519e-08
4.62256e-08
2.77261e-08
1.65195e-08
9.77754e-09
5.7492e-09
3.35854e-09
1.94932e-09
1.12415e-09
6.44159e-10
3.66785e-10
2.0754e-10
1.16703e-10
6.52183e-11
3.62233e-11
1.99965e-11
1.09721e-11
5.98426e-12
3.24442e-12
1.74859e-12
9.36875e-13
4.9904e-13
2.64282e-13
1.39154e-13
7.28512e-14
3.79236e-14
1.96304e-14
1.01045e-14
5.17227e-15
2.63297e-15
1.33298e-15
6.71173e-16
3.36117e-16
1.67421e-16
8.29482e-17
4.08788e-17
2.004e-17
9.77284e-18
4.74115e-18
2.28823e-18
1.09871e-18
5.24871e-19
2.49469e-19
1.17976e-19
5.5513e-20
2.59918e-20
1.21096e-20
5.61423e-21
2.59018e-21
1.18922e-21
5.4338e-22
2.47094e-22
1.11829e-22
5.03722e-23
2.25832e-23
1.00774e-23
4.47605e-24
1.97896e-24
8.70931e-25
3.81549e-25
1.66397e-25
7.22412e-26
3.12232e-26
1.34349e-26
5.75532e-27
2.45466e-27
1.04235e-27
4.407e-28
1.85522e-28
7.77639e-29
3.24567e-29
1.34891e-29
5.58245e-30
2.3006e-30
9.4415e-31
3.85865e-31
1.57049e-31
6.36573e-32
2.56972e-32
1.03314e-32
4.13688e-33
1.64984e-33
6.55352e-34
2.59286e-34
1.0218e-34
4.01091e-35
1.56827e-35
6.10812e-36
2.3698e-36
9.15893e-37
3.52625e-37
1.35247e-37
5.16766e-38
1.96708e-38
7.45972e-39
2.81839e-39
1.06088e-39
3.9786e-40
1.48661e-40
5.53446e-41
2.05293e-41
7.58755e-42
2.79425e-42
1.02535e-42
3.74915e-43
1.366e-43
4.95951e-44
1.79432e-44
6.46911e-45
2.32423e-45
8.32168e-46
2.96925e-46
1.05584e-46
3.74166e-47
1.32147e-47
4.65143e-48
1.63176e-48
5.70522e-49
1.98812e-49
6.90519e-50
2.39043e-50
8.24808e-51
2.83668e-51
9.72426e-52
3.32275e-52
1.13173e-52
3.84231e-53
1.30034e-53
4.38677e-54
1.47523e-54
4.94545e-55
1.6527e-55
5.50589e-56
1.82858e-56
6.05421e-57
1.99832e-57
6.57575e-58
2.15725e-58
7.05567e-59
2.30072e-59
7.47969e-60
2.4244e-60
7.83481e-61
2.52444e-61
8.10995e-62
2.59773e-62
8.29656e-63
2.64202e-63
8.38903e-64
2.65603e-64
8.38502e-65
2.63955e-65
8.28547e-66
2.5934e-66
8.09457e-67
2.51938e-67
7.81946e-68
2.42017e-68
7.46975e-69
2.29913e-69
7.05704e-70
2.16017e-70
6.59427e-71
2.00753e-71
6.09506e-72
1.84553e-72
5.57309e-73
1.67844e-73
5.04148e-74
1.51027e-74
4.51234e-75
1.34464e-75
3.99638e-76
1.18466e-76
3.50257e-77
1.03289e-77
3.03809e-78
8.91311e-79
2.60822e-79
7.61289e-80
2.21641e-80
6.43653e-81
1.86448e-81
5.38729e-82
1.55273e-82
4.46416e-83
1.28028e-83
3.66264e-84
1.04523e-84
2.97554e-85
8.44999e-86
2.3938e-86
6.76498e-87
1.90719e-87
5.36384e-88
1.50492e-88
4.21227e-89
1.1762e-89
3.27656e-90
9.10601e-91
2.52473e-91
6.98366e-92
1.92724e-92
5.30612e-93
1.45751e-93
3.9943e-94
1.09212e-94
2.97923e-95
8.10857e-96
2.20189e-96
5.9657e-97
1.61267e-97
4.3496e-98
1.17052e-98
3.14296e-99
8.42033e-100
2.2509e-100
6.00373e-101
1.59782e-101
4.2431e-102
1.12431e-102
2.97264e-103
7.84249e-104
2.06455e-104
5.42324e-105
1.42154e-105
3.71816e-106
9.70443e-107
2.52748e-107
6.56877e-108
1.70358e-108
4.40887e-109
1.13862e-109
2.93443e-110
7.5468e-111
1.93687e-111
4.96065e-112
1.26789e-112
3.23392e-113
8.23169e-114
2.09104e-114
5.30091e-115
1.34109e-115
3.38602e-116
8.53188e-117
2.1455e-117
5.38447e-118
1.34863e-118
3.37114e-119
8.4101e-120
2.09396e-120
5.20333e-121
1.29045e-121
3.19414e-122
7.89078e-123
1.94555e-123
4.78767e-124
1.17589e-124
2.88255e-125
7.05265e-126
1.72226e-126
4.19776e-127
1.0212e-127
2.47962e-128
6.00952e-129
1.45371e-129
3.50995e-130
8.4589e-131
2.03478e-131
4.88557e-132
1.17087e-132
2.80093e-133
6.68802e-134
1.59403e-134
3.7923e-135
9.0057e-136
2.13473e-136
5.05108e-137
1.193e-137
2.81266e-138
6.61933e-139
1.55502e-139
3.64655e-140
8.53608e-141
1.99465e-141
4.65271e-142
1.08338e-142
2.51824e-143
5.8432e-144
1.35347e-144
3.12961e-145
7.22404e-146
1.66464e-146
3.82923e-147
8.79339e-148
2.01585e-148
4.61338e-149
1.054e-149
2.40395e-150
5.47362e-151
1.24421e-151
2.82344e-152
6.39644e-153
1.44668e-153
3.26648e-154
7.36323e-155
1.65705e-155
3.72295e-156
8.35069e-157
1.87001e-157
4.18077e-158
9.33164e-159
2.07947e-159
4.62641e-160
1.02762e-160
2.27886e-161
5.04552e-162
1.11532e-162
2.46147e-163
5.42373e-164
1.1932e-164
2.62081e-165
5.74743e-166
1.25842e-166
)
;

boundaryField
{
    sides
    {
        type            zeroGradient;
    }
    empty
    {
        type            empty;
    }
}


// ************************************************************************* //
