/*--------------------------------*- C++ -*----------------------------------*\
| =========                 |                                                 |
| \\      /  F ield         | OpenFOAM: The Open Source CFD Toolbox           |
|  \\    /   O peration     | Version:  2312                                  |
|   \\  /    A nd           | Website:  www.openfoam.com                      |
|    \\/     M anipulation  |                                                 |
\*---------------------------------------------------------------------------*/
FoamFile
{
    version     2.0;
    format      ascii;
    arch        "LSB;label=32;scalar=64";
    class       volScalarField;
    location    "1.7";
    object      T;
}
// * * * * * * * * * * * * * * * * * * * * * * * * * * * * * * * * * * * * * //

dimensions      [0 0 0 1 0 0 0];

internalField   nonuniform List<scalar> 
1000
(
8.30109e-102
-2.71693e-101
9.02923e-101
-3.01605e-100
1.00513e-99
-3.34378e-99
1.11038e-98
-3.68062e-98
1.21783e-97
-4.0222e-97
1.32602e-96
-4.36359e-96
1.43332e-95
-4.69944e-95
1.53797e-94
-5.02401e-94
1.63813e-93
-5.33136e-93
1.73189e-92
-5.61551e-92
1.81738e-91
-5.87064e-91
1.89281e-90
-6.09126e-90
1.95652e-89
-6.27241e-89
2.00704e-88
-6.40983e-88
2.04316e-87
-6.50015e-87
2.06398e-86
-6.541e-86
2.0689e-85
-6.53113e-85
2.05772e-84
-6.47044e-84
2.03061e-83
-6.36005e-83
1.98808e-82
-6.20219e-82
1.93104e-81
-6.00021e-81
1.86068e-80
-5.75841e-80
1.77851e-79
-5.48188e-79
1.68624e-78
-5.17636e-78
1.58577e-77
-4.84802e-77
1.47909e-76
-4.50325e-76
1.36822e-75
-4.14844e-75
1.25518e-74
-3.7898e-74
1.14186e-73
-3.43318e-73
1.03005e-72
-3.08389e-72
9.21328e-72
-2.74663e-71
8.1706e-71
-2.42534e-70
7.18377e-70
-2.1232e-69
6.26157e-69
-1.84258e-68
5.41027e-68
-1.5851e-67
4.63376e-67
-1.3516e-66
3.93368e-66
-1.1423e-65
3.30968e-65
-9.56791e-65
2.75974e-64
-7.94208e-64
2.28042e-63
-6.53284e-63
1.86722e-62
-5.32465e-62
1.5149e-61
-4.30001e-61
1.21772e-60
-3.44039e-60
9.69734e-60
-2.72694e-59
7.65019e-59
-2.14111e-58
5.97823e-58
-1.6652e-57
4.62723e-57
-1.28271e-56
3.54719e-56
-9.78559e-56
2.69296e-55
-7.39282e-55
2.02452e-54
-5.53049e-54
1.50705e-53
-4.09649e-53
1.11073e-52
-3.00413e-52
8.10463e-52
-2.18096e-51
5.8541e-51
-1.56734e-50
4.18556e-50
-1.11488e-49
2.96194e-49
-7.84872e-49
2.07438e-48
-5.46815e-48
1.43764e-47
-3.76975e-47
9.85876e-47
-2.57143e-46
6.68902e-46
-1.73533e-45
4.48983e-45
-1.1585e-44
2.98113e-44
-7.65021e-44
1.95781e-43
-4.99652e-43
1.27162e-42
-3.22726e-42
8.16758e-42
-2.06124e-41
5.1872e-41
-1.30167e-40
3.25708e-40
-8.12658e-40
2.02177e-39
-5.01529e-39
1.24049e-38
-3.05927e-38
7.52251e-38
-1.84426e-37
4.50804e-37
-1.09864e-36
2.66941e-36
-6.46641e-36
1.56168e-35
-3.76004e-35
9.02528e-35
-2.15967e-34
5.15189e-34
-1.22515e-33
2.90436e-33
-6.86343e-33
1.61679e-32
-3.79648e-32
8.88618e-32
-2.07323e-31
4.82138e-31
-1.11758e-30
2.58202e-30
-5.94575e-30
1.36462e-29
-3.12153e-29
7.11645e-29
-1.61693e-28
3.66137e-28
-8.26245e-28
1.85815e-27
-4.16435e-27
9.30039e-27
-2.06982e-26
4.5902e-26
-1.01435e-25
2.23354e-25
-4.90044e-25
1.07129e-24
-2.33342e-24
5.06394e-24
-1.09491e-23
2.35861e-23
-5.06182e-23
1.08223e-22
-2.30509e-22
4.89096e-22
-1.03378e-21
2.17662e-21
-4.56498e-21
9.53649e-21
-1.98435e-20
4.11259e-20
-8.48918e-20
1.74525e-19
-3.57337e-19
7.28638e-19
-1.47961e-18
2.99204e-18
-6.02502e-18
1.20811e-17
-2.41212e-17
4.79531e-17
-9.49175e-17
1.87056e-16
-3.67008e-16
7.16873e-16
-1.39398e-15
2.69835e-15
-5.19937e-15
9.97236e-15
-1.90379e-14
3.61742e-14
-6.84093e-14
1.28751e-13
-2.41146e-13
4.49459e-13
-8.33597e-13
1.53836e-12
-2.8247e-12
5.16032e-12
-9.37885e-12
1.69577e-11
-3.05002e-11
5.45675e-11
-9.71034e-11
1.71861e-10
-3.02508e-10
5.29523e-10
-9.21706e-10
1.59525e-09
-2.74516e-09
4.69648e-09
-7.98757e-09
1.35039e-08
-2.26921e-08
3.78984e-08
-6.2902e-08
1.03745e-07
-1.70015e-07
2.76813e-07
-4.47735e-07
7.19363e-07
-1.14795e-06
1.81925e-06
-2.86294e-06
4.47332e-06
-6.9389e-06
1.06841e-05
-1.63272e-05
2.47601e-05
-3.72557e-05
5.56117e-05
-8.23377e-05
0.000120897
-0.000176009
0.000254023
-0.000363362
0.000515035
-0.000723208
0.00100579
-0.00138501
0.00188788
-0.00254642
0.00339761
-0.00448274
0.00584602
-0.00753234
0.00958376
-0.0120348
0.0149062
-0.0181976
0.0218794
-0.0258838
0.0300969
-0.0343529
0.0384312
-0.0420595
0.0449235
-0.0466852
0.0470107
-0.0456061
0.0422602
-0.0368904
0.0295846
-0.0206339
0.0105451
-2.81162e-05
-0.0100497
0.0187432
-0.0251394
0.0284875
-0.0283325
0.0246273
-0.0178011
0.00875909
0.00120093
-0.0105565
0.0177973
-0.0216953
0.0215604
-0.0174214
0.010083
-0.00102253
-0.00787282
0.0146918
-0.0179319
0.0168783
-0.0118243
0.00405643
0.0044226
-0.0113863
0.0149792
-0.0142529
0.00947785
-0.0021145
-0.00558174
0.0112306
-0.0130795
0.0105957
-0.00468282
-0.00258389
0.00864883
-0.0113755
0.00983731
-0.00469265
-0.00202886
0.00768549
-0.0100588
0.00826009
-0.00312192
-0.00312183
0.00777087
-0.00883124
0.00591325
-0.00043037
-0.00502933
0.00790395
-0.00688191
0.00255271
0.00286529
-0.00662412
0.00684476
-0.0034992
-0.00156106
0.00558382
-0.00640745
0.00365821
0.00103069
-0.00493876
0.00582417
-0.00323849
-0.00120182
0.00478526
-0.00536217
0.00268093
0.00144744
-0.00429588
0.00397518
-0.000662692
-0.00352469
0.00596494
-0.00533026
0.00251985
-5.26437e-05
0.000311394
-0.00386687
0.00909753
-0.0134116
0.0151978
-0.0150522
0.0153278
-0.0183134
0.0244226
-0.0318134
0.0377638
-0.040728
0.0414125
-0.0419721
0.0439695
-0.0468077
0.0479985
-0.0450983
0.0376918
-0.0277174
0.0178492
-0.00937243
0.00147394
0.0073998
-0.0173815
0.0262938
-0.0309829
0.029745
-0.0236338
0.0154482
-0.00740176
-0.000250477
0.00832563
-0.0165819
0.0227021
-0.0236806
0.0184155
-0.00894393
-0.000975722
0.00856752
-0.0133745
0.016099
-0.0165589
0.0133261
-0.00564467
-0.00454253
0.0130268
-0.0162113
0.0136611
-0.00780698
0.00136542
0.00454469
-0.0097018
0.0129221
-0.0119636
0.00585115
0.00305927
-0.0101289
0.0119662
-0.00881055
0.00340767
0.00190348
-0.00634906
0.00929871
-0.00906952
0.00438099
0.00311994
-0.00899889
0.00957951
-0.00516041
-0.000742505
0.00496872
-0.00672249
0.00628607
-0.00338503
-0.00183868
0.00690413
-0.00799467
0.00380088
0.00253943
-0.00634431
0.00579712
-0.00262551
-0.000902031
0.00388641
-0.00553505
0.00419834
0.000468918
-0.00534891
0.00615172
-0.00220015
-0.00270712
0.00470192
-0.00351132
0.0010324
0.00165957
-0.00397734
0.00412254
-0.000754055
-0.00381705
0.00506149
-0.00171937
-0.00250636
0.00376722
-0.00221577
3.10615e-05
0.00194699
-0.00330387
0.00234205
0.00133639
-0.00424345
0.00276721
0.00143369
-0.0034874
0.00196605
0.000376778
-0.00166654
0.00223409
-0.00151965
-0.00125731
0.00351281
-0.00176987
-0.00220127
0.00321409
-0.000563015
-0.00166193
0.00164078
-0.00098955
-7.65215e-05
0.00204748
-0.00233394
-0.000799966
0.00325156
-0.00117157
-0.00203869
0.0018456
-4.45277e-06
-0.000607498
0.00112673
-0.00148754
-0.000659154
0.00285605
-0.000659082
-0.0026752
0.00151347
0.00130581
-0.00109411
0.000226192
-0.000407385
-0.0010685
0.00206987
0.00104105
-0.00290938
-0.000556924
0.00243823
0.000172415
-0.000842723
-0.000152475
-0.00118899
0.000333055
0.00279527
-0.000325371
-0.00325783
-0.000103266
0.00225147
0.000739265
-3.43809e-05
-0.000965031
-0.00247018
0.000217343
0.00387642
0.00134385
-0.00301405
-0.00249605
-3.17305e-05
0.00158472
0.00325748
0.00178666
-0.00362957
-0.0052301
-6.11385e-05
0.00455251
0.00442208
0.00165547
-0.00312825
-0.00756507
-0.00508158
0.0039436
0.0099449
0.00773105
0.000349166
-0.00871105
-0.0150627
-0.01128
0.00364048
0.0194037
0.0253143
0.0180342
-0.0021304
-0.0306375
-0.0536759
-0.0542968
-0.0236745
0.03928
0.13323
0.251584
0.38043
0.506459
0.622831
0.724743
0.806801
0.868179
0.91365
0.946875
0.968339
0.980565
0.988708
0.994902
0.997756
0.99791
0.998562
1.00027
1.00061
0.999375
0.999177
1.0005
1.00085
0.999576
0.999083
1.00031
1.00098
0.99985
0.998979
0.999956
1.00103
1.00027
0.99901
0.999468
1.00087
1.00079
0.999342
0.998977
1.00034
1.00117
1.00007
0.998814
0.999454
1.00101
1.001
0.999398
0.998679
0.999996
1.00138
1.00071
0.99893
0.998659
1.00037
1.00163
1.0006
0.99864
0.99849
1.00045
1.00192
1.00086
0.998558
0.998002
1.00004
1.00219
1.00172
0.99903
0.997296
0.998717
1.00183
1.00309
1.00086
0.997388
0.996463
0.999363
1.00333
1.00425
1.00082
0.996053
0.994552
0.998205
1.0042
1.00725
1.00416
0.996734
0.990701
0.991358
0.999346
1.00972
1.01502
1.0103
0.996713
0.981456
0.974083
0.981286
1.00291
1.03111
1.05279
1.05404
1.02462
0.960781
0.865823
0.748531
0.620493
0.493279
0.376288
0.275637
0.194031
0.131351
0.0855637
0.0536606
0.0324101
0.0188556
0.0105665
0.0057023
0.002962
0.00147976
0.000710148
0.00032683
0.000143902
6.04083e-05
2.40575e-05
9.021e-06
3.14641e-06
9.98855e-07
2.75798e-07
5.82742e-08
3.83441e-09
-4.85607e-09
-3.68737e-09
-1.80362e-09
-7.11929e-10
-2.36069e-10
-6.39601e-11
-1.21059e-11
-4.25218e-14
1.3577e-12
8.21691e-13
3.37737e-13
1.0841e-13
2.64261e-14
3.58153e-15
-7.65931e-16
-8.10266e-16
-3.74303e-16
-1.24323e-16
-3.02304e-17
-3.93819e-18
8.89274e-19
8.6444e-19
3.71415e-19
1.11569e-19
2.2551e-20
1.06604e-21
-1.57253e-21
-8.97983e-22
-3.07431e-22
-7.16101e-23
-7.67586e-24
2.64693e-24
1.97362e-24
7.22313e-25
1.7468e-25
2.07591e-26
-5.16756e-27
-4.19346e-27
-1.51909e-27
-3.52203e-28
-3.57759e-29
1.26679e-29
8.65969e-30
2.8695e-30
5.86071e-31
3.12569e-32
-3.2587e-32
-1.67167e-32
-4.72964e-33
-7.50438e-34
4.08987e-35
7.45867e-35
2.84996e-35
6.39683e-36
5.5186e-37
-2.43808e-37
-1.41218e-37
-4.01835e-38
-6.16689e-39
3.88932e-40
5.97111e-40
2.1163e-40
4.22218e-41
1.90996e-42
-2.18235e-42
-9.85841e-43
-2.3391e-43
-2.33283e-44
6.85797e-45
4.19195e-45
1.13631e-45
1.51538e-46
-1.79533e-47
-1.66511e-47
-5.02657e-48
-7.82396e-49
3.53936e-50
6.29943e-50
2.06965e-50
3.51961e-51
-3.09895e-53
-2.3082e-52
-8.0426e-53
-1.43083e-53
-1.20687e-55
8.29984e-55
2.97496e-55
5.34708e-56
6.82126e-58
-2.95114e-57
-1.05204e-57
-1.85012e-58
-1.17197e-60
1.03835e-59
3.55944e-60
5.92891e-61
-6.50323e-63
-3.59506e-62
-1.1495e-62
-1.74866e-63
7.29654e-65
1.21306e-64
3.52538e-65
4.67411e-66
-4.35171e-67
-3.94454e-67
-1.0188e-67
-1.09515e-68
2.02573e-69
1.22232e-69
2.74361e-70
2.06659e-71
-8.05574e-72
-3.57068e-72
-6.7713e-73
-2.1823e-74
2.83406e-74
9.72417e-75
1.4889e-75
-4.70464e-77
-8.95608e-77
-2.43644e-77
-2.74842e-78
4.03335e-79
2.55605e-79
5.51203e-80
3.53633e-81
-1.67177e-81
-6.57781e-82
-1.08966e-82
4.23002e-85
5.36533e-84
1.51278e-84
1.74718e-85
-2.22755e-86
-1.45484e-86
-3.04554e-87
-1.72308e-88
9.38867e-89
3.41176e-89
5.11699e-90
-1.56874e-91
-2.77567e-91
-6.89228e-92
-6.21655e-93
1.42499e-93
6.66183e-94
1.16064e-94
1.50096e-96
-4.75613e-96
-1.33732e-96
-1.46468e-97
1.98293e-98
1.16434e-98
2.2045e-99
7.41389e-101
-7.57485e-101
-2.29347e-101
-2.71623e-102
2.74418e-103
1.86125e-103
3.6258e-104
1.45396e-105
-1.14936e-105
-3.53297e-106
-4.18087e-107
4.06939e-108
2.75112e-108
5.23687e-109
1.84435e-110
-1.6758e-110
-4.91693e-111
-5.40654e-112
6.46234e-113
3.76252e-113
6.6515e-114
1.28406e-115
-2.32694e-115
-6.16535e-116
-5.77689e-117
1.0236e-117
4.72346e-118
7.35388e-119
-7.25548e-121
-3.0155e-120
-6.89284e-121
-4.77509e-122
1.50579e-122
5.36681e-123
6.89567e-124
-4.13532e-125
-3.56262e-125
-6.74219e-126
-2.3293e-127
1.97252e-127
5.41543e-128
5.16214e-129
-8.11634e-130
-3.75132e-130
-5.5833e-131
9.83453e-133
2.25109e-132
4.73143e-133
2.54229e-134
-1.12937e-134
-3.44079e-135
-3.6558e-136
4.0941e-137
2.2051e-137
3.43803e-138
-1.68139e-140
-1.24296e-139
-2.67099e-140
-1.51954e-141
5.9543e-142
1.82247e-142
1.90487e-143
-2.13728e-144
-1.11398e-144
-1.66983e-145
2.02848e-147
6.09588e-147
1.23368e-147
5.75322e-149
-2.91863e-149
-8.10921e-150
-7.40493e-151
1.13439e-151
4.8374e-152
6.3957e-153
-2.54699e-154
-2.62903e-154
-4.63518e-155
-1.04726e-156
1.28901e-156
2.99902e-157
2.01222e-158
-5.51755e-159
-1.77503e-159
-1.86131e-160
1.86453e-161
9.70052e-162
1.37556e-162
-2.81126e-164
-4.89485e-164
-8.96299e-165
-2.67681e-166
2.25799e-166
5.33896e-167
3.63646e-168
-9.2635e-169
-2.95477e-169
-2.99683e-170
3.13165e-171
1.52992e-171
2.04917e-172
-6.27501e-174
-7.41794e-174
-1.25558e-174
-2.11114e-176
3.35098e-176
7.10921e-177
3.73725e-178
-1.39074e-178
-3.77544e-179
-3.12728e-180
5.12987e-181
1.8948e-181
2.10301e-182
-1.53421e-183
-9.01597e-184
-1.25771e-184
2.35947e-186
4.06682e-186
6.94742e-187
1.34818e-188
-1.73243e-188
-3.60974e-189
-1.7873e-190
6.90645e-191
1.78174e-191
1.34352e-192
-2.52738e-193
-8.40216e-194
-8.34516e-195
8.12082e-196
3.7971e-196
4.66512e-197
-2.0029e-198
-1.64642e-198
-2.42764e-199
1.24033e-201
6.84583e-201
1.19598e-201
2.86555e-203
-2.7228e-203
-5.632e-204
-2.70415e-205
1.03039e-205
2.55026e-206
1.76293e-207
-3.67272e-208
-1.1147e-208
-9.87672e-210
1.2088e-210
4.71633e-211
5.02218e-212
-3.01419e-213
)
;

boundaryField
{
    sides
    {
        type            zeroGradient;
    }
    empty
    {
        type            empty;
    }
}


// ************************************************************************* //
