/*--------------------------------*- C++ -*----------------------------------*\
| =========                 |                                                 |
| \\      /  F ield         | OpenFOAM: The Open Source CFD Toolbox           |
|  \\    /   O peration     | Version:  2312                                  |
|   \\  /    A nd           | Website:  www.openfoam.com                      |
|    \\/     M anipulation  |                                                 |
\*---------------------------------------------------------------------------*/
FoamFile
{
    version     2.0;
    format      ascii;
    arch        "LSB;label=32;scalar=64";
    class       volScalarField;
    location    "1.2";
    object      T;
}
// * * * * * * * * * * * * * * * * * * * * * * * * * * * * * * * * * * * * * //

dimensions      [0 0 0 1 0 0 0];

internalField   nonuniform List<scalar> 
1000
(
2.18669e-150
-1.01708e-149
4.42172e-149
-1.93091e-148
8.41634e-148
-3.66234e-147
1.59098e-146
-6.89989e-146
2.98735e-145
-1.29121e-144
5.57146e-144
-2.39996e-143
1.03205e-142
-4.4305e-142
1.89873e-141
-8.12318e-141
3.4693e-140
-1.47914e-139
6.29539e-139
-2.67475e-138
1.13446e-137
-4.80325e-137
2.03012e-136
-8.5654e-136
3.60752e-135
-1.51672e-134
6.3655e-134
-2.6668e-133
1.11526e-132
-4.65572e-132
1.94009e-131
-8.07007e-131
3.35083e-130
-1.38882e-129
5.74584e-129
-2.37287e-128
9.78148e-128
-4.0248e-127
1.65306e-126
-6.77702e-126
2.77326e-125
-1.13277e-124
4.61837e-124
-1.87945e-123
7.63425e-123
-3.09522e-122
1.25258e-121
-5.05946e-121
2.03979e-120
-8.20822e-120
3.29678e-119
-1.32162e-118
5.28809e-118
-2.11184e-117
8.41768e-117
-3.3488e-116
1.32969e-115
-5.26955e-115
2.08427e-114
-8.22796e-114
3.24178e-113
-1.27475e-112
5.00285e-112
-1.95954e-111
7.66011e-111
-2.98852e-110
1.16363e-109
-4.52179e-109
1.75363e-108
-6.78729e-108
2.62169e-107
-1.01063e-106
3.88798e-106
-1.49271e-105
5.71929e-105
-2.18687e-104
8.34478e-104
-3.17771e-103
1.20759e-102
-4.57959e-102
1.73314e-101
-6.5454e-101
2.46679e-100
-9.27724e-100
3.48171e-99
-1.30392e-98
4.87295e-98
-1.81723e-97
6.76246e-97
-2.51114e-96
9.3048e-96
-3.4404e-95
1.26933e-94
-4.67302e-94
1.71664e-93
-6.29235e-93
2.30143e-92
-8.39902e-92
3.05846e-91
-1.11127e-90
4.02875e-90
-1.45732e-89
5.25984e-89
-1.89415e-88
6.80582e-88
-2.43987e-87
8.72707e-87
-3.11447e-86
1.10894e-85
-3.93948e-85
1.39627e-84
-4.93744e-84
1.74192e-83
-6.13119e-83
2.15303e-82
-7.54289e-82
2.63637e-81
-9.19287e-81
3.19792e-80
-1.10982e-79
3.84242e-79
-1.32714e-78
4.57281e-78
-1.57183e-77
5.38982e-77
-1.84369e-76
6.29135e-76
-2.14159e-75
7.27211e-75
-2.46328e-74
8.32319e-74
-2.80535e-73
9.43189e-73
-3.16317e-72
1.05816e-71
-3.5309e-71
1.17521e-70
-3.90159e-70
1.29198e-69
-4.2673e-69
1.40583e-68
-4.6194e-68
1.51394e-67
-4.9488e-67
1.61344e-66
-5.24638e-66
1.70145e-65
-5.50334e-65
1.77531e-64
-5.71162e-64
1.83264e-63
-5.86436e-63
1.87148e-62
-5.95619e-62
1.89044e-61
-5.98359e-61
1.8887e-60
-5.94509e-60
1.86614e-59
-5.84138e-59
1.82333e-58
-5.6753e-58
1.76149e-57
-5.45172e-57
1.68246e-56
-5.17733e-56
1.58859e-55
-4.86024e-55
1.48264e-54
-4.50964e-54
1.36763e-53
-4.13533e-53
1.2467e-52
-3.74726e-52
1.12296e-51
-3.35508e-51
9.99367e-51
-2.96773e-50
8.78606e-50
-2.59315e-49
7.62987e-49
-2.23798e-48
6.54395e-48
-1.90748e-47
5.54253e-47
-1.60538e-46
4.63515e-46
-1.334e-45
3.82692e-45
-1.0943e-44
3.11894e-44
-8.86044e-44
2.50885e-43
-7.08035e-43
1.99154e-42
-5.58305e-42
1.55988e-41
-4.34351e-41
1.20535e-40
-3.33347e-40
9.18727e-40
-2.52332e-39
6.90631e-39
-1.88364e-38
5.11942e-38
-1.38645e-37
3.74145e-37
-1.00605e-36
2.69543e-36
-7.19554e-36
1.91387e-35
-5.07184e-35
1.3391e-34
-3.52245e-34
9.23106e-34
-2.41003e-33
6.26824e-33
-1.6241e-32
4.19191e-32
-1.07778e-31
2.76034e-31
-7.04194e-31
1.78941e-30
-4.52902e-30
1.14173e-29
-2.86664e-29
7.16845e-29
-1.78528e-28
4.42793e-28
-1.09371e-27
2.69023e-27
-6.58957e-27
1.60727e-26
-3.90365e-26
9.44039e-26
-2.27317e-25
5.44984e-25
-1.30086e-24
3.09141e-24
-7.31389e-24
1.72262e-23
-4.03893e-23
9.42675e-23
-2.19009e-22
5.06462e-22
-1.16574e-21
2.67062e-21
-6.08918e-21
1.38173e-20
-3.12026e-20
7.01196e-20
-1.56803e-19
3.4891e-19
-7.72501e-19
1.70173e-18
-3.72967e-18
8.13234e-18
-1.76403e-17
3.80645e-17
-8.17028e-17
1.74435e-16
-3.70413e-16
7.82298e-16
-1.64312e-15
3.43201e-15
-7.12837e-15
1.4722e-14
-3.02308e-14
6.17185e-14
-1.25266e-13
2.52743e-13
-5.06897e-13
1.01048e-12
-2.00203e-12
3.94201e-12
-7.71324e-12
1.49967e-11
-2.89706e-11
5.56017e-11
-1.06011e-10
2.00776e-10
-3.77683e-10
7.05602e-10
-1.30908e-09
2.41161e-09
-4.41099e-09
8.00954e-09
-1.44369e-08
2.58279e-08
-4.58562e-08
8.07886e-08
-1.41218e-07
2.44884e-07
-4.21213e-07
7.18542e-07
-1.21548e-06
2.03853e-06
-3.38915e-06
5.58465e-06
-9.11913e-06
1.4753e-05
-2.36423e-05
3.75224e-05
-5.89639e-05
9.17219e-05
-0.000141203
0.00021507
-0.00032401
0.000482668
-0.000710731
0.00103413
-0.00148626
0.00210903
-0.00295353
0.00407996
-0.00555633
0.00745548
-0.00984973
0.0128028
-0.0163583
0.0205258
-0.0252632
0.0304592
-0.0359164
0.041339
-0.0463303
0.050403
-0.0530091
0.0535898
-0.051648
0.0468371
-0.0390577
0.0285454
-0.0159308
0.00224812
0.0111274
-0.0226234
0.0306927
-0.0340904
0.0321601
-0.0250661
0.0139036
-0.000625739
-0.0122397
0.0220646
-0.0267067
0.0250765
-0.0175232
0.00589608
0.00680314
-0.0171461
0.0222275
-0.0205744
0.0127124
-0.00114418
-0.0103396
0.0178687
-0.0188509
0.0129892
-0.00252243
-0.00850061
0.0157334
-0.0162886
0.0100156
0.000312983
-0.0101021
0.0149414
-0.0126607
0.00444643
0.0056185
-0.0124938
0.0127255
-0.00629942
-0.00324811
0.0106599
-0.0118432
0.00623164
0.00279593
-0.00982556
0.0106392
-0.00484648
-0.00378677
0.00966986
-0.00900719
0.00236164
0.00564686
-0.00946085
0.00647748
0.00103986
-0.00753173
0.00820928
-0.00267265
-0.00471943
0.00817635
-0.00503762
-0.00204714
0.00721454
-0.00621187
-7.05339e-07
0.00601088
-0.00660454
0.0013655
0.00489874
-0.0064643
0.00195117
0.00434677
-0.00648017
0.00255449
0.00337257
-0.00522811
0.000967832
0.00533757
-0.00766997
0.00436662
2.8569e-05
0.000490348
-0.00696106
0.0143416
-0.0171371
0.0156488
-0.01572
0.022031
-0.0325451
0.0407087
-0.0430159
0.0429327
-0.0462345
0.053276
-0.0578501
0.0543793
-0.044553
0.0348501
-0.0280089
0.0197027
-0.00514506
-0.0130438
0.0266102
-0.031141
0.0304335
-0.0296964
0.0273328
-0.0175098
0.000225117
0.0159856
-0.0234524
0.0236539
-0.0223519
0.019369
-0.00934728
-0.00726044
0.0207328
-0.0230782
0.0173171
-0.0107932
0.00377357
0.0076535
-0.0197296
0.0220117
-0.0119135
-0.000872803
0.00814466
-0.012275
0.0160357
-0.0134351
0.000419986
0.0134402
-0.0160243
0.00939999
-0.00313798
-0.00239853
0.0110786
-0.0159606
0.00770322
0.00656118
-0.011927
0.0083962
-0.00524181
0.00081819
0.00927427
-0.0144106
0.00477789
0.00763749
-0.00879251
0.00525091
-0.00421313
-0.0022781
0.0123727
-0.00904082
-0.00493688
0.00878183
-0.00366171
0.00323131
0.000196014
-0.0108338
0.00851946
0.00662134
-0.0084722
0.000656902
-0.00190981
-0.00122065
0.0116765
-0.00311286
-0.0116573
0.00360755
0.00309565
0.00298067
0.00642312
-0.0100328
-0.0108162
0.00836695
0.00807821
0.00316852
0.00114834
-0.0140273
-0.0125869
0.0102829
0.0154526
0.00836235
0.00115819
-0.0188814
-0.026878
-0.00279322
0.0212734
0.0312608
0.0319977
0.00383671
-0.0445606
-0.0701886
-0.0621671
-0.0198177
0.0760138
0.212961
0.356474
0.501392
0.641903
0.752001
0.831659
0.897692
0.942548
0.962963
0.979128
0.994091
0.995781
0.994131
1.00047
1.00268
0.997133
0.998105
1.00344
1.00045
0.996413
1.00085
1.00326
0.998081
0.997371
1.00269
1.00186
0.996839
0.998924
1.0034
1.00036
0.996542
1.00025
1.00342
0.999267
0.996662
1.00108
1.00326
0.998692
0.99678
1.00142
1.00324
0.998596
0.996687
1.00127
1.00345
0.99901
0.996386
1.00055
1.00377
1.00007
0.996149
0.999123
1.00376
1.00185
0.996631
0.997088
1.00256
1.0039
0.99875
0.995452
0.999441
1.00452
1.00266
0.996517
0.995427
1.00126
1.00556
1.0019
0.995219
0.994913
1.00177
1.00672
1.00292
0.994861
0.992814
0.999842
1.0078
1.00696
0.997572
0.98992
0.99298
1.00441
1.01261
1.00848
0.994783
0.984053
0.987146
1.00318
1.01959
1.02207
1.00603
0.980812
0.963947
0.969679
0.999561
1.04039
1.06992
1.06643
1.01709
0.921702
0.791247
0.64299
0.494836
0.360994
0.249916
0.164354
0.102756
0.0611088
0.0345736
0.018605
0.00951555
0.00461915
0.00212346
0.000921273
0.00037523
0.000142282
4.95307e-05
1.54243e-05
4.05596e-06
7.48557e-07
-1.30662e-08
-9.92504e-08
-6.11208e-08
-2.63727e-08
-9.11064e-09
-2.51085e-09
-4.78882e-10
-5.99568e-12
4.79661e-11
2.78998e-11
1.06528e-11
3.03453e-12
5.81469e-13
1.15485e-14
-5.08676e-14
-2.78545e-14
-9.61414e-15
-2.31315e-15
-2.80793e-16
7.10909e-17
6.06121e-17
2.3357e-17
5.97808e-18
8.32803e-19
-1.19062e-19
-1.26642e-19
-4.88279e-20
-1.19396e-20
-1.42854e-21
3.24681e-22
2.59467e-22
8.89144e-23
1.85628e-23
1.14776e-24
-9.32496e-25
-4.84159e-25
-1.34098e-25
-2.00201e-26
1.58557e-27
2.1117e-27
7.4536e-28
1.49887e-28
7.20888e-30
-7.6532e-30
-3.51403e-30
-8.45372e-31
-8.77902e-32
2.33916e-32
1.47953e-32
4.04368e-33
5.44535e-34
-6.07944e-35
-5.7653e-35
-1.72529e-35
-2.61998e-36
1.39507e-37
2.1362e-37
6.74412e-38
1.07301e-38
-3.39787e-40
-7.66528e-40
-2.44983e-40
-3.86606e-41
1.24513e-42
2.68363e-42
8.3156e-43
1.23646e-43
-6.42904e-45
-9.13423e-45
-2.63402e-45
-3.48113e-46
3.33219e-47
2.98761e-47
7.73032e-48
8.35601e-49
-1.52358e-49
-9.24612e-50
-2.07465e-50
-1.5582e-51
6.05397e-52
2.66331e-52
4.98355e-53
1.43437e-54
-2.10436e-54
-7.01847e-55
-1.0306e-55
4.525e-57
6.43435e-57
1.65811e-57
1.67465e-58
-3.21051e-59
-1.73063e-59
-3.40837e-60
-1.44872e-61
1.20302e-61
4.06426e-62
5.74831e-63
-2.87443e-64
-3.44747e-64
-8.17315e-65
-6.67503e-66
1.88273e-66
8.10746e-67
1.34394e-67
3.36699e-72
-5.9395e-69
-1.57759e-69
-1.57467e-70
2.70937e-71
1.38862e-71
2.45277e-72
4.30478e-74
-9.29436e-74
-2.56645e-74
-2.65631e-75
3.95007e-76
2.10047e-76
3.65953e-77
5.58679e-79
-1.35259e-78
-3.58437e-79
-3.40388e-80
5.9997e-81
2.82652e-81
4.51008e-82
-2.06194e-84
-1.81938e-83
-4.29498e-84
-3.22089e-85
8.90604e-86
3.35072e-86
4.51483e-87
-2.11297e-88
-2.20195e-88
-4.34125e-89
-1.84326e-90
1.1898e-90
3.42263e-91
3.46469e-92
-4.63552e-93
-2.31793e-93
-3.56705e-94
3.25146e-96
1.35469e-95
2.91415e-96
1.67294e-97
-6.60422e-98
-2.04884e-98
-2.19462e-99
2.33599e-100
1.272e-100
1.95964e-101
-1.27902e-103
-6.98169e-103
-1.4573e-103
-7.54236e-105
3.30722e-105
9.56019e-106
9.1855e-107
-1.24288e-107
-5.65226e-108
-7.73419e-109
2.41395e-110
3.02682e-110
5.47991e-111
1.50675e-112
-1.45536e-112
-3.4621e-113
-2.41584e-114
6.09101e-115
1.99742e-115
2.11167e-116
-2.01693e-117
-1.06308e-117
-1.49515e-118
3.1509e-120
5.2297e-120
9.3623e-121
2.45792e-122
-2.36416e-122
-5.36471e-123
-3.32374e-124
9.64785e-125
2.85952e-125
2.64214e-126
-3.3957e-127
-1.42973e-127
-1.73098e-128
8.90212e-130
6.7303e-130
1.0134e-130
-3.59205e-133
-2.98297e-132
-5.47783e-133
-1.7036e-134
1.23991e-134
2.77928e-135
1.63803e-136
-4.78594e-137
-1.33609e-137
-1.11129e-138
1.67882e-139
6.1205e-140
6.47094e-141
-5.08187e-142
-2.68084e-142
-3.43047e-143
1.11979e-144
1.12483e-144
1.6995e-145
3.46652e-149
-4.52317e-147
-7.97939e-148
-2.05677e-149
1.74165e-149
3.58092e-150
1.68181e-151
-6.40485e-152
-1.54467e-152
-1.01032e-153
2.23801e-154
6.42976e-155
5.27967e-156
-7.36017e-157
-2.59013e-157
-2.53235e-158
2.23686e-159
1.01195e-159
1.14226e-160
-6.03678e-162
-3.84093e-162
-4.91012e-163
1.29257e-164
1.41817e-164
2.02786e-165
-1.1015e-167
-5.09908e-167
-8.09033e-168
-9.44964e-170
1.78686e-169
3.13012e-170
8.17673e-172
-6.1068e-172
-1.17783e-172
-4.54663e-174
2.0365e-174
4.32029e-175
2.14223e-176
-6.62931e-177
-1.54755e-177
-9.19136e-179
2.1071e-179
5.42166e-180
3.70023e-181
-6.5404e-182
-1.86011e-182
-1.41946e-183
1.9827e-184
6.25669e-185
5.2362e-186
-5.86987e-187
-2.06528e-187
-1.86834e-188
1.69697e-189
6.69612e-190
6.47429e-191
-4.78985e-192
-2.13412e-192
-2.18518e-193
1.31971e-194
6.69082e-195
7.19923e-196
-3.54859e-197
-2.06484e-197
-2.3191e-198
9.31136e-200
6.27626e-200
7.3142e-201
-2.38462e-202
-1.87999e-202
-2.26094e-203
5.96442e-205
5.55215e-205
6.85589e-206
-1.45944e-207
-1.61736e-207
-2.0408e-208
3.50538e-210
4.64901e-210
5.96693e-211
-8.31564e-213
-1.31905e-212
-1.71445e-213
1.96836e-215
3.69515e-215
4.84278e-216
-4.71938e-218
-1.02227e-217
-1.34522e-218
1.1675e-220
2.79346e-220
3.67564e-221
-3.03032e-223
-7.54063e-223
-9.88071e-224
8.31414e-226
2.01091e-225
2.61347e-226
-2.39689e-228
-5.29795e-228
-6.80227e-229
7.14583e-231
1.37893e-230
1.74224e-231
-2.1629e-233
-3.54545e-233
-4.39102e-234
6.54566e-236
9.00432e-236
1.08892e-236
-1.95993e-238
-2.25853e-238
-2.65668e-239
5.76976e-241
5.59408e-241
6.37552e-242
-1.66428e-243
-1.36799e-243
-1.50458e-244
4.6964e-246
3.3022e-246
3.49062e-247
-1.29582e-248
-7.8668e-249
-7.95789e-250
3.49619e-251
1.84914e-251
1.7819e-252
-9.2271e-254
-4.2876e-254
-3.91642e-255
2.38323e-256
9.80449e-257
8.44249e-258
-6.02738e-259
-2.2105e-259
-1.78356e-260
1.51243e-261
3.99639e-262
)
;

boundaryField
{
    sides
    {
        type            zeroGradient;
    }
    empty
    {
        type            empty;
    }
}


// ************************************************************************* //
