/*--------------------------------*- C++ -*----------------------------------*\
| =========                 |                                                 |
| \\      /  F ield         | OpenFOAM: The Open Source CFD Toolbox           |
|  \\    /   O peration     | Version:  2312                                  |
|   \\  /    A nd           | Website:  www.openfoam.com                      |
|    \\/     M anipulation  |                                                 |
\*---------------------------------------------------------------------------*/
FoamFile
{
    version     2.0;
    format      ascii;
    arch        "LSB;label=32;scalar=64";
    class       volScalarField;
    location    "2.9";
    object      T;
}
// * * * * * * * * * * * * * * * * * * * * * * * * * * * * * * * * * * * * * //

dimensions      [0 0 0 1 0 0 0];

internalField   nonuniform List<scalar> 
1000
(
0
0
0
0
0
0
0
0
0
0
0
0
0
0
0
0
0
0
0
0
0
0
0
0
0
0
0
0
0
0
0
0
0
0
0
0
0
0
0
0
0
0
0
0
0
0
0
0
0
0
0
0
0
0
0
0
0
0
0
0
0
0
0
0
0
0
0
0
0
0
0
0
0
0
0
0
0
0
0
0
0
0
0
0
0
0
0
0
0
0
0
0
0
0
0
0
0
0
0
0
0
0
0
0
0
0
0
0
0
0
0
0
0
0
0
0
0
0
0
0
0
0
0
0
0
0
0
0
0
0
0
0
0
0
0
0
0
0
0
0
0
0
0
0
0
0
0
0
0
0
0
0
0
0
0
0
0
0
0
0
0
0
0
0
0
0
0
0
0
0
0
0
0
0
0
0
0
0
0
0
0
0
0
0
0
0
0
0
0
0
0
0
0
0
0
0
0
0
0
0
0
0
0
0
0
0
0
0
0
0
0
0
0
0
0
0
0
0
0
0
0
0
0
0
0
0
0
0
0
0
0
0
0
0
0
0
0
0
0
0
0
0
0
0
0
0
0
0
0
0
0
0
0
0
0
0
0
0
0
0
0
0
0
0
0
0
0
0
0
0
0
0
0
0
0
0
0
0
0
0
0
0
0
0
0
0
0
0
0
0
0
0
0
0
0
0
0
0
0
0
0
0
0
0
0
0
0
0
0
0
0
0
0
0
0
0
0
0
0
0
0
0
0
0
0
0
0
0
0
0
0
0
0
0
0
0
0
0
0
0
0
0
0
0
0
0
0
0
0
0
0
0
0
0
0
0
0
0
0
0
0
0
0
0
0
0
0
0
0
0
0
0
0
0
0
0
0
0
0
0
0
0
0
0
0
0
0
0
0
0
0
0
0
0
0
0
0
0
0
0
0
0
0
0
0
0
0
0
0
0
0
0
0
0
0
0
0
0
0
0
0
0
0
0
0
0
0
0
0
0
0
0
0
0
0
0
0
0
0
0
0
0
0
0
0
0
0
0
0
0
1.54584e-83
2.86824e-81
2.66193e-79
1.64758e-77
7.65102e-76
2.84343e-74
8.8094e-73
2.34026e-71
5.4419e-70
1.12524e-68
2.09481e-67
3.54661e-66
5.50622e-65
7.89394e-64
1.05126e-62
1.30715e-61
1.52431e-60
1.67361e-59
1.7361e-58
1.70677e-57
1.59464e-56
1.41945e-55
1.20653e-54
9.81326e-54
7.65187e-53
5.73001e-52
4.12736e-51
2.86393e-50
1.91699e-49
1.23937e-48
7.7486e-48
4.68994e-47
2.75098e-46
1.56533e-45
8.64814e-45
4.64317e-44
2.42458e-43
1.23232e-42
6.10087e-42
2.94404e-41
1.38569e-40
6.36542e-40
2.85554e-39
1.25169e-38
5.36394e-38
2.24842e-37
9.2234e-37
3.70451e-36
1.45745e-35
5.61908e-35
2.12388e-34
7.87341e-34
2.8637e-33
1.02232e-32
3.5834e-32
1.23368e-31
4.17303e-31
1.38734e-30
4.53447e-30
1.45752e-29
4.60865e-29
1.43391e-28
4.39114e-28
1.32389e-27
3.9306e-27
1.14948e-26
3.31194e-26
9.4038e-26
2.63185e-25
7.26188e-25
1.97588e-24
5.30251e-24
1.40379e-23
3.66693e-23
9.45296e-23
2.40534e-22
6.04235e-22
1.49876e-21
3.67137e-21
8.88313e-21
2.12332e-20
5.01471e-20
1.17037e-19
2.69968e-19
6.15569e-19
1.38764e-18
3.09299e-18
6.81765e-18
1.4863e-17
3.20516e-17
6.83786e-17
1.44335e-16
3.01479e-16
6.23203e-16
1.27508e-15
2.58246e-15
5.17802e-15
1.02796e-14
2.02079e-14
3.93405e-14
7.58543e-14
1.44872e-13
2.74093e-13
5.13762e-13
9.54154e-13
1.75593e-12
3.20237e-12
5.78826e-12
1.03699e-11
1.8416e-11
3.2422e-11
5.65914e-11
9.79402e-11
1.68077e-10
2.8604e-10
4.82781e-10
8.0819e-10
1.34199e-09
2.21051e-09
3.61222e-09
5.85633e-09
9.42061e-09
1.50371e-08
2.38185e-08
3.74419e-08
5.84149e-08
9.0457e-08
1.39041e-07
2.12155e-07
3.21367e-07
4.83299e-07
7.21646e-07
1.06992e-06
1.57518e-06
2.30293e-06
3.34373e-06
4.8218e-06
6.90621e-06
9.82533e-06
1.38854e-05
1.94938e-05
2.71886e-05
3.76751e-05
5.1871e-05
7.09609e-05
9.64637e-05
0.000130311
0.000174943
0.000233417
0.000309536
0.000407998
0.000534557
0.000696216
0.000901426
0.00116031
0.00148491
0.00188944
0.00239051
0.00300746
0.00376254
0.0046812
0.00579231
0.00712833
0.00872544
0.0106236
0.0128668
0.0155024
0.0185816
0.0221589
0.0262915
0.0310391
0.0364632
0.0426261
0.0495902
0.057417
0.0661659
0.0758931
0.0866506
0.0984844
0.111434
0.125529
0.140793
0.157236
0.174859
0.19365
0.213583
0.234623
0.256718
0.279805
0.30381
0.328645
0.354213
0.380407
0.407112
0.434206
0.461562
0.489052
0.516545
0.54391
0.57102
0.597751
0.623987
0.649617
0.67454
0.698665
0.72191
0.744206
0.765496
0.785733
0.804884
0.822927
0.83985
0.855654
0.870347
0.883948
0.896485
0.90799
0.918503
0.928068
0.936735
0.944554
0.951578
0.957863
0.963462
0.968429
0.972818
0.97668
0.980064
0.983018
0.985585
0.987808
0.989724
0.99137
0.992777
0.993976
0.994993
0.995852
0.996575
0.99718
0.997684
0.998101
0.998443
0.998722
0.998946
0.999123
0.999257
0.999352
0.999413
0.999439
0.999432
0.999388
0.999305
0.999178
0.999
0.998763
0.998456
0.998065
0.997574
0.996966
0.996217
0.995303
0.994196
0.992863
0.991268
0.989371
0.987129
0.984495
0.981416
0.97784
0.973707
0.96896
0.963536
0.957373
0.950409
0.942583
0.933834
0.924107
0.913349
0.901516
0.888566
0.874471
0.859207
0.842764
0.825141
0.80635
0.786417
0.765377
0.743282
0.720195
0.69619
0.671355
0.645787
0.619593
0.592888
0.565794
0.538438
0.510948
0.483455
0.45609
0.42898
0.402249
0.376013
0.350383
0.32546
0.301335
0.27809
0.255794
0.234504
0.214267
0.195116
0.177073
0.16015
0.144346
0.129653
0.116052
0.103515
0.0920102
0.0814972
0.0719316
0.063265
0.0554461
0.0484216
0.0421372
0.0365384
0.0315711
0.0271821
0.0233202
0.0199359
0.0169821
0.0144147
0.0121919
0.0102753
0.00862931
0.00722132
0.00602168
0.00500359
0.00414295
0.00341827
0.00281042
0.00230255
0.00187984
0.00152936
0.00123989
0.0010017
0.000806453
0.000647011
0.000517295
0.000412156
0.000327256
0.000258951
0.0002042
0.000160475
0.000125682
9.80985e-05
7.63087e-05
5.91581e-05
4.57075e-05
3.51963e-05
2.70114e-05
2.06606e-05
1.57502e-05
1.1967e-05
9.06233e-06
6.84002e-06
5.14566e-06
3.8583e-06
2.88354e-06
2.148e-06
1.59488e-06
1.18035e-06
8.70729e-07
6.40257e-07
4.69274e-07
3.4285e-07
2.49685e-07
1.81258e-07
1.31165e-07
9.4616e-08
6.80359e-08
4.87691e-08
3.48487e-08
2.4824e-08
1.76279e-08
1.2479e-08
8.8067e-09
6.19591e-09
4.3457e-09
3.03866e-09
2.11824e-09
1.47213e-09
1.01999e-09
7.0458e-10
4.85236e-10
3.33173e-10
2.28078e-10
1.55668e-10
1.0593e-10
7.18704e-11
4.86178e-11
3.27913e-11
2.20518e-11
1.47862e-11
9.88553e-12
6.58989e-12
4.38021e-12
2.90306e-12
1.9185e-12
1.26422e-12
8.30682e-13
5.44262e-13
3.55585e-13
2.31658e-13
1.50495e-13
9.74924e-14
6.29795e-14
4.05705e-14
2.60621e-14
1.66954e-14
1.06655e-14
6.79459e-15
4.31665e-15
2.73487e-15
1.72797e-15
1.08881e-15
6.84197e-16
4.28778e-16
2.67984e-16
1.67037e-16
1.03837e-16
6.43759e-17
3.98048e-17
2.45466e-17
1.50971e-17
9.26072e-18
5.66566e-18
3.45712e-18
2.10396e-18
1.27711e-18
7.73185e-19
4.66887e-19
2.81199e-19
1.68926e-19
1.01218e-19
6.04932e-20
3.60615e-20
2.14423e-20
1.27173e-20
7.52349e-21
4.4396e-21
2.61321e-21
1.53431e-21
8.98596e-22
5.24965e-22
3.05925e-22
1.77837e-22
1.03122e-22
5.96503e-23
3.44194e-23
1.9812e-23
1.1376e-23
6.51621e-24
3.72343e-24
2.12245e-24
1.20693e-24
6.84669e-25
3.87467e-25
2.18751e-25
1.23204e-25
6.92256e-26
3.88041e-26
2.16999e-26
1.21064e-26
6.73826e-27
3.74163e-27
2.0728e-27
1.14562e-27
6.31703e-28
3.47518e-28
1.90737e-28
1.04446e-28
5.70623e-29
3.11035e-29
1.69152e-29
9.17809e-30
4.96867e-30
2.68375e-30
1.44631e-30
7.7768e-31
4.17218e-31
2.23332e-31
1.1928e-31
6.35646e-32
3.37984e-32
1.79314e-32
9.49227e-33
5.01381e-33
2.64247e-33
1.38963e-33
7.29187e-34
3.81795e-34
1.99469e-34
1.03987e-34
5.40932e-35
2.80782e-35
1.45432e-35
7.51653e-36
3.87655e-36
1.99502e-36
1.02452e-36
5.2502e-37
2.68478e-37
1.37001e-37
6.97631e-38
3.54498e-38
1.79759e-38
9.09623e-39
4.59331e-39
2.31466e-39
1.16399e-39
5.84132e-40
2.92535e-40
1.46201e-40
7.29177e-41
3.62933e-41
1.80274e-41
8.93624e-42
4.42074e-42
2.18251e-42
1.07532e-42
5.28745e-43
2.59467e-43
1.27071e-43
6.21072e-44
3.02951e-44
1.47481e-44
7.16542e-45
3.47445e-45
1.68141e-45
8.12091e-46
3.91456e-46
1.88326e-46
9.04254e-47
4.33334e-47
2.07258e-47
9.89364e-48
4.71369e-48
2.24145e-48
1.0638e-48
5.03914e-49
2.38244e-49
)
;

boundaryField
{
    sides
    {
        type            zeroGradient;
    }
    empty
    {
        type            empty;
    }
}


// ************************************************************************* //
