/*--------------------------------*- C++ -*----------------------------------*\
| =========                 |                                                 |
| \\      /  F ield         | OpenFOAM: The Open Source CFD Toolbox           |
|  \\    /   O peration     | Version:  2312                                  |
|   \\  /    A nd           | Website:  www.openfoam.com                      |
|    \\/     M anipulation  |                                                 |
\*---------------------------------------------------------------------------*/
FoamFile
{
    version     2.0;
    format      ascii;
    arch        "LSB;label=32;scalar=64";
    class       volScalarField;
    location    "3.9";
    object      T;
}
// * * * * * * * * * * * * * * * * * * * * * * * * * * * * * * * * * * * * * //

dimensions      [0 0 0 1 0 0 0];

internalField   nonuniform List<scalar> 
1000
(
6.20575e-06
-8.75753e-07
5.64227e-06
-5.32881e-06
8.79835e-06
-1.13268e-05
1.59828e-05
-2.15834e-05
2.94747e-05
-3.98105e-05
5.36525e-05
-7.18883e-05
9.58915e-05
-0.000127256
0.000168042
-0.000220758
0.000288506
-0.000375046
0.000484915
-0.000623521
0.000797248
-0.00101355
0.00128099
-0.00160934
0.00200949
-0.00249344
0.0030741
-0.00376505
0.00458014
-0.00553297
0.00663619
-0.00790067
0.00933438
-0.0109413
0.0127199
-0.014662
0.0167509
-0.0189604
0.0212531
-0.0235801
0.0258798
-0.0280789
0.0300926
-0.0318274
0.0331834
-0.0340588
0.0343555
-0.0339847
0.0328747
-0.0309778
0.0282781
-0.0247978
0.0206027
-0.0158052
0.0105645
-0.00508311
-0.000400184
0.00562193
-0.0103093
0.0141984
-0.0170556
0.0186981
-0.0190143
0.01798
-0.0156694
0.0122581
-0.00801651
0.00329463
0.00150423
-0.00595702
0.00966039
-0.0122719
0.0135488
-0.0133788
0.0117996
-0.00900216
0.005316
-0.00117728
-0.00291927
0.00647888
-0.00906914
0.0103782
-0.01026
0.00875937
-0.00611145
0.00271348
0.000928629
-0.0042727
0.0068217
-0.00820163
0.00822315
-0.00691552
0.00452563
-0.00148
-0.00168541
0.00441723
-0.00624266
0.006856
-0.00617669
0.00436663
-0.00180141
-0.00100089
0.00348094
-0.00515007
0.00569033
-0.00502111
0.00331691
-0.000970739
-0.0014909
0.00352403
-0.00468919
0.00475156
-0.0037353
0.00191804
0.000234928
-0.00218245
0.00343906
-0.00369397
0.00288733
-0.00122311
-0.000886196
0.00292999
-0.00443706
0.00510378
-0.0048779
0.00397405
-0.00281527
0.00191587
-0.00173779
0.00256152
-0.00440931
0.00704388
-0.0100439
0.0129342
-0.0153308
0.0170566
-0.0181901
0.0190311
-0.0199925
0.0214532
-0.0236185
0.0264347
-0.0295865
0.0325801
-0.0348841
0.0360821
-0.0359852
0.0346669
-0.0324091
0.0295808
-0.0264942
0.0232937
-0.0199194
0.0161607
-0.0117805
0.00666246
-0.000923934
-0.00505198
0.0106823
-0.0153274
0.018461
-0.0198071
0.0193931
-0.0175064
0.0145743
-0.0110207
0.00715864
-0.00316037
-0.000889209
0.0048878
-0.00861716
0.0117067
-0.0136884
0.0141313
-0.0128039
0.00979691
-0.00555101
0.000769524
0.00375499
-0.0073375
0.00954934
-0.0102706
0.00964066
-0.00794567
0.00550271
-0.00259564
-0.000519085
0.00355952
-0.0061708
0.00793485
-0.00845808
0.00751203
-0.00516457
0.00183194
0.00178994
-0.00490426
0.00684061
-0.00724445
0.00615773
-0.00396692
0.00125118
0.00139858
-0.00351765
0.00482382
-0.00520087
0.00465331
-0.00327941
0.00128138
0.00100854
-0.00313293
0.00458358
-0.00494448
0.00405353
-0.00210533
-0.00036926
0.00265858
-0.00410747
0.00434007
-0.00337519
0.00159086
0.000436165
-0.0021376
0.00311947
-0.00323361
0.00255612
-0.00131584
-0.000177715
0.00158411
-0.00257101
0.0028692
-0.00235311
0.00111963
0.000488302
-0.00195765
0.00277734
-0.00264333
0.00159976
-3.82499e-05
-0.00145617
0.00234524
-0.00235161
0.00154933
-0.000299563
-0.000922201
0.00171567
-0.00187937
0.00143557
-0.000578342
-0.000408278
0.00122646
-0.00162833
0.00147631
-0.000798519
-0.000187905
0.00112221
-0.00162614
0.00147086
-0.000702295
-0.000354548
0.00123375
-0.00154859
0.0011791
-0.000324734
-0.000605022
0.00119844
-0.00123275
0.000753249
-1.63453e-05
-0.00065199
0.000998914
-0.000926313
0.00049787
0.000104823
-0.000647903
0.000918147
-0.000797252
0.000320575
0.000313408
-0.000811622
0.00092224
-0.000574544
-6.35615e-05
0.000661038
-0.00090225
0.000666325
-9.60093e-05
-0.000488832
0.000778744
-0.000645974
0.000198431
0.000303948
-0.000604943
0.00058151
-0.000282368
-0.000123474
0.000440476
-0.000530972
0.000363373
-2.00395e-05
-0.0003337
0.000517469
-0.000424946
9.30937e-05
0.000299133
-0.000522359
0.00043628
-8.7578e-05
-0.000309177
0.000506212
-0.000385303
3.46639e-05
0.000314824
-0.000447035
0.000298869
1.34145e-05
-0.000286398
0.000364759
-0.000226446
-2.55914e-05
0.000240247
-0.000304839
0.000195663
1.99716e-05
-0.00022052
0.000290345
-0.000183038
-4.289e-05
0.000247148
-0.000291619
0.000138219
0.000112788
-0.00028529
0.000254614
-4.38e-05
-0.000190989
0.000278943
-0.000163844
-5.86915e-05
0.000221873
-0.000216208
6.2957e-05
0.00011664
-0.000199079
0.000142009
1.41668e-06
-0.000131298
0.000167648
-9.3595e-05
-4.03074e-05
0.000146457
-0.000151934
4.81038e-05
9.49049e-05
-0.000170553
0.000115829
3.18048e-05
-0.000155932
0.000154215
-2.70775e-05
-0.000119183
0.000162825
-7.16713e-05
-7.19059e-05
0.000146775
-9.79169e-05
-2.35868e-05
0.0001139
-0.000106605
1.94461e-05
7.25039e-05
-0.000101585
5.38886e-05
2.99043e-05
-8.79557e-05
7.86875e-05
-8.29063e-06
-7.06095e-05
9.41057e-05
-3.84161e-05
-5.32593e-05
0.000100959
-5.87165e-05
-3.79824e-05
0.000100194
-6.91867e-05
-2.52345e-05
9.28338e-05
-7.1328e-05
-1.42562e-05
8.01669e-05
-6.77791e-05
-3.75644e-06
6.4004e-05
-6.17658e-05
7.30332e-06
4.67689e-05
-5.63693e-05
1.90528e-05
3.12586e-05
-5.37271e-05
3.04312e-05
2.00364e-05
-5.44026e-05
3.9453e-05
1.46185e-05
-5.72133e-05
4.40116e-05
1.47994e-05
-5.9726e-05
4.29528e-05
1.85274e-05
-5.93742e-05
3.69234e-05
2.25922e-05
-5.48092e-05
2.84611e-05
2.40189e-05
-4.68263e-05
2.10536e-05
2.1595e-05
-3.82332e-05
1.74385e-05
1.66767e-05
-3.24762e-05
1.79886e-05
1.25909e-05
-3.1585e-05
2.02509e-05
1.26761e-05
-3.46387e-05
2.02387e-05
1.79651e-05
-3.79472e-05
1.49963e-05
2.60767e-05
-3.7223e-05
4.85753e-06
3.241e-05
-3.05559e-05
-6.3914e-06
3.32159e-05
-2.00281e-05
-1.4008e-05
2.84483e-05
-1.0371e-05
-1.59029e-05
2.19429e-05
-5.2393e-06
-1.44331e-05
1.82547e-05
-3.99684e-06
-1.43997e-05
1.84554e-05
-2.13507e-06
-1.84496e-05
1.87704e-05
4.39853e-06
-2.3977e-05
1.39832e-05
1.46471e-05
-2.50379e-05
2.95626e-06
2.26631e-05
-1.81937e-05
-9.30996e-06
2.29492e-05
-6.56784e-06
-1.60068e-05
1.61719e-05
2.78926e-06
-1.53396e-05
8.59418e-06
6.16685e-06
-1.21517e-05
5.03116e-06
6.90706e-06
-1.1678e-05
3.30859e-06
1.03945e-05
-1.25095e-05
-2.27223e-06
1.58675e-05
-8.28407e-06
-1.19233e-05
1.61383e-05
2.82767e-06
-1.79377e-05
7.14437e-06
1.34007e-05
-1.38064e-05
-5.01786e-06
1.48743e-05
-3.40895e-06
-1.0664e-05
8.54256e-06
3.58351e-06
-8.79846e-06
3.14079e-06
4.71084e-06
-6.84691e-06
1.59213e-06
6.36462e-06
-7.42888e-06
-2.22286e-06
1.06289e-05
-3.79883e-06
-1.02268e-05
9.48343e-06
6.61327e-06
-1.29962e-05
-1.19881e-06
1.34307e-05
-4.19806e-06
-1.09552e-05
7.98234e-06
6.59532e-06
-9.23024e-06
-1.79496e-06
7.85356e-06
-2.06549e-06
-4.49134e-06
4.0431e-06
2.17678e-07
-3.81555e-06
3.81307e-06
1.66418e-06
-6.67418e-06
1.69517e-06
7.85685e-06
-5.35627e-06
-7.32053e-06
8.46397e-06
5.42205e-06
-1.03953e-05
-2.76764e-06
1.08515e-05
3.93897e-08
-9.86101e-06
2.15948e-06
7.71314e-06
-3.41187e-06
-4.85365e-06
3.53545e-06
1.77237e-06
-2.57711e-06
1.09229e-06
7.67315e-07
-3.41749e-06
1.54753e-06
5.02429e-06
-3.97728e-06
-5.87348e-06
6.15168e-06
6.03781e-06
-7.76755e-06
-5.66094e-06
8.61709e-06
4.91372e-06
-8.5987e-06
-3.95583e-06
7.71426e-06
2.90854e-06
-6.05759e-06
-1.84128e-06
3.79821e-06
7.72485e-07
-1.16321e-06
3.16994e-07
-1.58171e-06
-1.46095e-06
4.15252e-06
2.67983e-06
-6.26986e-06
-3.95295e-06
7.68624e-06
5.1971e-06
-8.21793e-06
-6.25787e-06
7.77961e-06
6.91938e-06
-6.41702e-06
-6.93629e-06
4.32942e-06
6.08785e-06
-1.87112e-06
-4.24831e-06
-4.78972e-07
1.46025e-06
2.18734e-06
2.00923e-06
-2.77505e-06
-5.65473e-06
1.95248e-06
8.78464e-06
2.4987e-07
-1.06522e-05
-3.39791e-06
1.0657e-05
6.6672e-06
-8.57738e-06
-8.99101e-06
4.7629e-06
9.34811e-06
-1.95498e-07
-7.14099e-06
-3.66414e-06
2.55161e-06
5.27605e-06
3.28492e-06
-3.60308e-06
-8.44493e-06
-1.30592e-06
1.07913e-05
8.00478e-06
-8.86281e-06
-1.38816e-05
2.76932e-06
1.60519e-05
5.37078e-06
-1.27266e-05
-1.18905e-05
4.49995e-06
1.30613e-05
5.22214e-06
-7.17733e-06
-1.12918e-05
-3.79049e-06
9.36828e-06
1.42241e-05
1.07685e-06
-1.72968e-05
-1.51596e-05
9.18202e-06
2.41564e-05
7.25074e-06
-2.04997e-05
-2.22951e-05
3.85495e-06
2.45404e-05
1.61468e-05
-9.43934e-06
-2.43585e-05
-1.44899e-05
1.11515e-05
2.84873e-05
1.69983e-05
-1.69924e-05
-3.76823e-05
-1.63493e-05
2.84442e-05
4.51116e-05
1.04717e-05
-3.87556e-05
-4.76638e-05
-6.03925e-06
4.29778e-05
5.09303e-05
9.88761e-06
-4.41365e-05
-6.20962e-05
-2.17401e-05
4.77683e-05
8.15699e-05
3.7424e-05
-5.29951e-05
-0.000103388
-5.69989e-05
5.06904e-05
0.000121527
8.71327e-05
-2.89306e-05
-0.000132401
-0.000134695
-2.16581e-05
0.000129315
0.000196751
0.00010657
-9.39785e-05
-0.000252211
-0.00022506
-5.19517e-06
0.000256114
0.000357155
0.000198168
-0.000139152
-0.000436189
-0.000472159
-0.00017098
0.000323126
0.000701073
0.000669955
0.000161126
-0.000580766
-0.00111061
-0.00104093
-0.000287605
0.000841357
0.0017622
0.00188602
0.000931406
-0.000860733
-0.0027359
-0.00370208
-0.0029804
-0.000428024
0.00326854
0.00672429
0.00827253
0.00654299
0.00104286
-0.00742546
-0.0166537
-0.0232884
-0.023401
-0.0132028
0.0102831
0.0487239
0.102217
0.169289
0.247143
0.332108
0.420166
0.507445
0.59058
0.666948
0.734782
0.793183
0.842027
0.881787
0.913323
0.937704
0.956084
0.969619
0.979379
0.986282
0.99106
0.994278
0.996385
0.997743
0.998625
0.999199
0.999555
0.999746
0.999833
0.999883
0.999939
0.999996
1.00002
1.00001
0.999969
0.999958
0.999989
1.00003
1.00005
1.00001
0.999959
0.999945
0.999987
1.00005
1.00007
1.00002
0.999948
0.99992
0.999967
1.00005
1.0001
1.00006
0.999954
0.999881
0.999909
1.00002
1.00013
1.00014
1.00002
0.999865
0.999802
0.999898
1.0001
1.00025
1.00022
1.00001
0.99975
0.999643
0.999796
1.00014
1.00044
1.00048
1.00017
0.999671
0.999299
0.999337
0.999842
1.00058
1.0011
1.00104
1.00029
0.99916
0.998231
0.998109
0.999073
1.00087
1.00274
1.00369
1.00298
1.00043
0.996739
0.993274
0.991718
0.993454
0.998965
1.00743
1.01665
1.02328
1.0234
1.01321
0.989727
0.951274
0.897771
0.830705
0.752866
0.667904
0.579833
0.492542
0.409411
0.333059
0.265233
0.206821
0.15796
0.118198
0.0866795
0.0623138
0.043927
0.0303715
0.020601
0.0137116
0.00895669
0.00574296
0.00361504
0.00223423
0.00135587
0.000807989
0.000472832
0.000271719
0.000153332
8.49596e-05
4.62186e-05
2.46821e-05
1.29367e-05
6.65333e-06
3.35654e-06
1.66043e-06
8.05063e-07
3.82361e-07
1.77771e-07
8.08399e-08
3.59192e-08
1.55741e-08
6.5789e-09
2.70186e-09
1.07578e-09
4.13695e-10
1.52816e-10
5.3779e-11
1.77893e-11
5.3959e-12
1.42111e-12
2.73585e-13
-3.21585e-16
-3.77275e-14
-2.66289e-14
-1.36118e-14
-5.93229e-15
-2.30378e-15
-8.04417e-16
-2.48918e-16
-6.47082e-17
-1.1588e-17
5.23675e-19
1.83287e-18
1.15427e-18
5.3311e-19
2.06338e-19
6.87035e-20
1.91977e-20
3.98108e-21
2.16809e-22
-3.45166e-22
-2.46329e-22
-1.14796e-22
-4.30271e-23
-1.33847e-23
-3.28186e-24
-4.68805e-25
9.30952e-26
1.11705e-25
5.76691e-26
2.23277e-26
6.96053e-27
1.66725e-27
2.15848e-28
-5.81415e-29
-5.87108e-29
-2.83216e-29
-1.02127e-29
-2.88136e-30
-5.668e-31
-1.62226e-32
5.1958e-32
3.17034e-32
1.26308e-32
3.83842e-33
8.44193e-34
7.3097e-35
-4.7443e-35
-3.42927e-35
-1.42471e-35
-4.38575e-36
-9.64833e-37
-8.32283e-38
5.26915e-38
3.7325e-38
1.50392e-38
4.41657e-39
8.83872e-40
3.60457e-41
-6.83963e-41
-4.0147e-41
-1.46605e-41
-3.84808e-42
-6.04658e-43
5.51831e-44
8.74016e-44
4.03678e-44
1.2642e-44
2.70557e-45
1.97001e-46
-1.54544e-46
-9.78314e-47
-3.54996e-47
-8.93675e-48
-1.23141e-48
2.05475e-49
2.17113e-49
9.00863e-50
2.51838e-50
4.33919e-51
-1.31331e-52
-4.57305e-52
-2.13679e-52
-6.39863e-53
-1.22448e-53
-2.81736e-55
9.48372e-55
4.84568e-55
1.50669e-55
3.00836e-56
1.2848e-57
-2.00127e-57
-1.0652e-57
-3.33368e-58
-6.62859e-59
-2.73423e-60
4.36956e-60
2.28138e-60
6.96246e-61
1.31872e-61
2.70687e-63
-9.7936e-63
-4.7454e-63
-1.3685e-63
-2.34335e-64
5.86922e-66
2.19542e-65
9.49283e-66
2.5059e-66
3.58701e-67
-4.18115e-68
-4.77596e-68
-1.79998e-68
-4.19498e-69
-4.25592e-70
1.45745e-70
9.82432e-71
3.17604e-71
6.20431e-72
2.20571e-73
-3.89953e-73
-1.87093e-73
-5.0898e-74
-7.52375e-75
6.87761e-76
8.76137e-76
3.23322e-76
7.1323e-77
5.7676e-78
-2.97184e-78
-1.69823e-78
-4.95616e-79
-7.91964e-80
3.1865e-81
)
;

boundaryField
{
    sides
    {
        type            zeroGradient;
    }
    empty
    {
        type            empty;
    }
}


// ************************************************************************* //
