/*--------------------------------*- C++ -*----------------------------------*\
| =========                 |                                                 |
| \\      /  F ield         | OpenFOAM: The Open Source CFD Toolbox           |
|  \\    /   O peration     | Version:  2312                                  |
|   \\  /    A nd           | Website:  www.openfoam.com                      |
|    \\/     M anipulation  |                                                 |
\*---------------------------------------------------------------------------*/
FoamFile
{
    version     2.0;
    format      ascii;
    arch        "LSB;label=32;scalar=64";
    class       volScalarField;
    location    "0.8";
    object      T;
}
// * * * * * * * * * * * * * * * * * * * * * * * * * * * * * * * * * * * * * //

dimensions      [0 0 0 1 0 0 0];

internalField   nonuniform List<scalar> 
1000
(
5.81417e-241
3.05846e-240
1.89166e-239
1.17377e-238
7.27402e-238
4.50156e-237
2.78194e-236
1.71683e-235
1.05803e-234
6.51115e-234
4.00135e-233
2.45551e-232
1.50474e-231
9.20799e-231
5.62664e-230
3.4333e-229
2.09196e-228
1.27283e-227
7.7332e-227
4.6916e-226
2.84219e-225
1.7193e-224
1.03853e-223
6.26395e-223
3.7726e-222
2.26879e-221
1.3624e-220
8.16907e-220
4.89097e-219
2.92395e-218
1.7454e-217
1.04032e-216
6.19141e-216
3.67921e-215
2.18305e-214
1.29334e-213
7.65065e-213
4.51879e-212
2.66489e-211
1.56917e-210
9.22553e-210
5.41552e-209
3.17406e-208
1.85744e-207
1.08527e-206
6.33107e-206
3.68753e-205
2.14442e-204
1.24508e-203
7.21766e-203
4.17739e-202
2.4139e-201
1.39264e-200
8.02159e-200
4.61299e-199
2.64852e-198
1.51816e-197
8.68817e-197
4.96397e-196
2.83151e-195
1.61248e-194
9.16759e-194
5.20353e-193
2.94863e-192
1.66809e-191
9.42096e-191
5.31181e-190
2.98993e-189
1.68014e-188
9.42535e-188
5.27852e-187
2.95112e-186
1.6471e-185
9.17719e-185
5.10449e-184
2.8343e-183
1.57104e-182
8.69312e-182
4.80183e-181
2.64776e-180
1.45744e-179
8.00821e-179
4.39253e-178
2.40505e-177
1.31451e-176
7.17177e-176
3.90582e-175
2.12334e-174
1.15224e-173
6.2414e-173
3.37468e-172
1.82135e-171
9.81208e-171
5.27633e-170
2.83208e-169
1.51732e-168
8.11416e-168
4.33115e-167
2.30757e-166
1.22713e-165
6.5135e-165
3.45079e-164
1.82474e-163
9.63076e-163
5.07332e-162
2.66744e-161
1.3998e-160
7.3316e-160
3.83261e-159
1.99962e-158
1.04126e-157
5.41152e-157
2.80692e-156
1.45308e-155
7.50739e-155
3.87106e-154
1.99209e-153
1.02311e-152
5.24402e-152
2.68247e-151
1.3694e-150
6.97667e-150
3.54718e-149
1.79984e-148
9.11372e-148
4.60539e-147
2.32243e-146
1.16875e-145
5.86944e-145
2.9415e-144
1.47107e-143
7.34149e-143
3.65613e-142
1.81694e-141
9.01029e-141
4.45873e-140
2.20169e-139
1.08484e-138
5.33389e-138
2.61686e-137
1.28108e-136
6.25783e-136
3.05016e-135
1.48343e-134
7.19872e-134
3.48564e-133
1.68401e-132
8.11783e-132
3.90448e-131
1.87374e-130
8.97176e-130
4.2861e-129
2.04296e-128
9.71552e-128
4.60975e-127
2.18218e-126
1.03063e-125
4.8563e-125
2.28296e-124
1.07073e-123
5.01001e-123
2.33871e-122
1.08915e-121
5.06022e-121
2.34539e-120
1.08448e-119
5.00249e-119
2.30199e-118
1.05674e-117
4.83924e-117
2.21068e-116
1.00742e-115
4.5796e-115
2.07669e-114
9.3937e-114
4.23858e-113
1.90773e-112
8.56494e-112
3.83562e-111
1.71336e-110
7.63405e-110
3.39276e-109
1.50396e-108
6.64973e-108
2.93256e-107
1.28992e-106
5.65909e-106
2.47624e-105
1.08068e-104
4.70386e-104
2.04202e-103
8.84117e-103
3.81766e-102
1.64406e-101
7.06103e-101
3.02441e-100
1.29191e-99
5.50348e-99
2.33803e-98
9.90526e-98
4.18485e-97
1.76314e-96
7.40763e-96
3.10352e-95
1.2966e-94
5.40168e-94
2.24397e-93
9.29537e-93
3.83946e-92
1.58133e-91
6.49411e-91
2.65922e-90
1.08573e-89
4.41992e-89
1.79403e-88
7.26037e-88
2.92953e-87
1.17853e-86
4.72694e-86
1.89022e-85
7.53579e-85
2.9952e-84
1.18685e-83
4.6885e-83
1.84643e-82
7.24914e-82
2.83719e-81
1.10697e-80
4.30542e-80
1.66927e-79
6.45151e-79
2.48549e-78
9.54497e-78
3.65376e-77
1.39413e-76
5.30219e-76
2.00998e-75
7.59463e-75
2.86016e-74
1.07359e-73
4.01644e-73
1.4976e-72
5.56532e-72
2.0612e-71
7.60817e-71
2.79873e-70
1.02602e-69
3.74848e-69
1.36475e-68
4.9516e-68
1.79028e-67
6.45021e-67
2.31577e-66
8.28474e-66
2.95336e-65
1.04906e-64
3.71298e-64
1.30941e-63
4.60097e-63
1.61079e-62
5.61871e-62
1.95268e-61
6.76109e-61
2.3323e-60
8.01541e-60
2.74431e-59
9.36046e-59
3.18061e-58
1.07662e-57
3.63034e-57
1.21942e-56
4.08014e-56
1.35988e-55
4.51466e-55
1.49292e-54
4.91727e-54
1.61318e-53
5.27109e-53
1.71542e-52
5.56007e-52
1.79483e-51
5.77018e-51
1.84743e-50
5.8905e-50
1.87038e-49
5.91412e-49
1.8622e-48
5.83884e-48
1.82298e-47
5.66736e-47
1.75434e-46
5.40721e-46
1.65938e-45
5.07015e-45
1.54237e-44
4.67134e-44
1.40852e-43
4.22814e-43
1.26353e-42
3.75888e-42
1.11317e-41
3.28158e-41
9.62965e-41
2.81276e-40
8.17787e-40
2.36657e-39
6.81647e-39
1.95411e-38
5.57543e-38
1.58319e-37
4.47405e-37
1.25826e-36
3.52155e-36
9.80785e-36
2.71819e-35
7.49618e-35
2.05703e-34
5.61658e-34
1.52588e-33
4.12449e-33
1.10921e-32
2.96778e-32
7.89983e-32
2.09197e-31
5.51103e-31
1.44423e-30
3.76488e-30
9.76261e-30
2.51806e-29
6.46009e-29
1.64843e-28
4.18355e-28
1.05597e-27
2.65078e-27
6.61759e-27
1.64291e-26
4.05604e-26
9.9575e-26
2.43077e-25
5.90022e-25
1.42399e-24
3.41704e-24
8.15228e-24
1.93366e-23
4.5597e-23
1.06889e-22
2.49092e-22
5.77027e-22
1.3287e-21
3.04117e-21
6.91859e-21
1.56439e-20
3.51564e-20
7.85203e-20
1.74286e-19
3.84439e-19
8.42682e-19
1.8355e-18
3.97266e-18
8.5434e-18
1.82552e-17
3.87552e-17
8.17422e-17
1.71285e-16
3.5656e-16
7.37343e-16
1.51465e-15
3.09062e-15
6.26402e-15
1.26101e-14
2.52128e-14
5.00667e-14
9.87379e-14
1.93379e-13
3.76103e-13
7.26376e-13
1.39302e-12
2.65261e-12
5.01532e-12
9.41483e-12
1.75469e-11
3.24671e-11
5.96387e-11
1.08752e-10
1.96857e-10
3.53719e-10
6.30869e-10
1.11681e-09
1.96228e-09
3.42193e-09
5.92232e-09
1.0172e-08
1.73382e-08
2.93268e-08
4.92239e-08
8.19827e-08
1.35484e-07
2.22158e-07
3.61431e-07
5.83402e-07
9.34276e-07
1.48434e-06
2.33954e-06
3.65809e-06
5.67402e-06
8.73032e-06
1.33248e-05
2.0173e-05
3.02936e-05
4.51223e-05
6.66626e-05
9.76822e-05
0.000141966
0.000204634
0.000292545
0.000414784
0.000583258
0.0008134
0.00112499
0.00154311
0.00209913
0.00283192
0.00378898
0.00502763
0.00661621
0.00863504
0.0111772
0.0143492
0.0182706
0.023074
0.0289033
0.0359124
0.0442619
0.0541156
0.0656364
0.0789805
0.0942921
0.111697
0.131295
0.153155
0.17731
0.203749
0.232414
0.2632
0.295951
0.330463
0.366486
0.40373
0.441872
0.480562
0.519438
0.558128
0.59627
0.633514
0.669537
0.704049
0.7368
0.767586
0.796251
0.82269
0.846845
0.868705
0.888303
0.905708
0.921019
0.934364
0.945884
0.955738
0.964088
0.971097
0.976926
0.981729
0.985651
0.988823
0.991365
0.993384
0.994972
0.996211
0.997168
0.997901
0.998457
0.998875
0.999187
0.999417
0.999585
0.999707
0.999795
0.999858
0.999902
0.999933
0.999955
0.99997
0.99998
0.999987
0.999991
0.999994
0.999996
0.999997
0.999998
0.999998
0.999998
0.999998
0.999997
0.999996
0.999994
0.999991
0.999987
0.99998
0.99997
0.999955
0.999933
0.999902
0.999858
0.999795
0.999707
0.999585
0.999417
0.999187
0.998875
0.998457
0.997901
0.997168
0.996211
0.994972
0.993384
0.991365
0.988823
0.985651
0.981729
0.976926
0.971097
0.964088
0.955738
0.945884
0.934364
0.921019
0.905708
0.888303
0.868705
0.846845
0.82269
0.796251
0.767586
0.7368
0.704049
0.669537
0.633514
0.59627
0.558128
0.519438
0.480562
0.441872
0.40373
0.366486
0.330463
0.295951
0.2632
0.232414
0.203749
0.17731
0.153155
0.131295
0.111697
0.0942921
0.0789805
0.0656364
0.0541156
0.0442619
0.0359124
0.0289033
0.023074
0.0182706
0.0143492
0.0111772
0.00863504
0.00661621
0.00502763
0.00378898
0.00283192
0.00209913
0.00154311
0.00112499
0.0008134
0.000583258
0.000414784
0.000292545
0.000204634
0.000141966
9.76822e-05
6.66626e-05
4.51223e-05
3.02936e-05
2.0173e-05
1.33248e-05
8.73032e-06
5.67402e-06
3.65809e-06
2.33954e-06
1.48434e-06
9.34276e-07
5.83402e-07
3.61431e-07
2.22158e-07
1.35484e-07
8.19827e-08
4.92239e-08
2.93268e-08
1.73382e-08
1.0172e-08
5.92232e-09
3.42193e-09
1.96228e-09
1.11681e-09
6.30869e-10
3.53719e-10
1.96857e-10
1.08752e-10
5.96387e-11
3.24671e-11
1.75469e-11
9.41483e-12
5.01532e-12
2.65261e-12
1.39302e-12
7.26376e-13
3.76103e-13
1.93379e-13
9.87379e-14
5.00667e-14
2.52128e-14
1.26101e-14
6.26402e-15
3.09062e-15
1.51465e-15
7.37343e-16
3.5656e-16
1.71285e-16
8.17422e-17
3.87552e-17
1.82552e-17
8.5434e-18
3.97266e-18
1.8355e-18
8.42682e-19
3.84439e-19
1.74286e-19
7.85203e-20
3.51564e-20
1.56439e-20
6.91859e-21
3.04117e-21
1.3287e-21
5.77027e-22
2.49092e-22
1.06889e-22
4.5597e-23
1.93366e-23
8.15228e-24
3.41704e-24
1.42399e-24
5.90022e-25
2.43077e-25
9.9575e-26
4.05604e-26
1.64291e-26
6.61759e-27
2.65078e-27
1.05597e-27
4.18355e-28
1.64843e-28
6.46009e-29
2.51806e-29
9.76261e-30
3.76488e-30
1.44423e-30
5.51103e-31
2.09197e-31
7.89983e-32
2.96778e-32
1.10921e-32
4.12449e-33
1.52588e-33
5.61658e-34
2.05703e-34
7.49618e-35
2.71819e-35
9.80785e-36
3.52155e-36
1.25826e-36
4.47405e-37
1.58319e-37
5.57543e-38
1.95411e-38
6.81647e-39
2.36657e-39
8.17787e-40
2.81276e-40
9.62965e-41
3.28158e-41
1.11317e-41
3.75888e-42
1.26353e-42
4.22814e-43
1.40852e-43
4.67134e-44
1.54237e-44
5.07015e-45
1.65938e-45
5.40721e-46
1.75434e-46
5.66736e-47
1.82298e-47
5.83884e-48
1.8622e-48
5.91412e-49
1.87038e-49
5.8905e-50
1.84743e-50
5.77018e-51
1.79483e-51
5.56007e-52
1.71542e-52
5.27109e-53
1.61318e-53
4.91727e-54
1.49292e-54
4.51466e-55
1.35988e-55
4.08014e-56
1.21942e-56
3.63034e-57
1.07662e-57
3.18061e-58
9.36046e-59
2.74431e-59
8.01541e-60
2.3323e-60
6.76109e-61
1.95268e-61
5.61871e-62
1.61079e-62
4.60097e-63
1.30941e-63
3.71298e-64
1.04906e-64
2.95336e-65
8.28474e-66
2.31577e-66
6.45021e-67
1.79028e-67
4.9516e-68
1.36475e-68
3.74848e-69
1.02602e-69
2.79873e-70
7.60817e-71
2.0612e-71
5.56532e-72
1.4976e-72
4.01644e-73
1.07359e-73
2.86016e-74
7.59463e-75
2.00998e-75
5.30219e-76
1.39413e-76
3.65376e-77
9.54497e-78
2.48549e-78
6.45151e-79
1.66927e-79
4.30542e-80
1.10697e-80
2.83719e-81
7.24914e-82
1.84643e-82
4.6885e-83
1.18685e-83
2.9952e-84
7.53579e-85
1.89022e-85
4.72694e-86
1.17853e-86
2.92953e-87
7.26037e-88
1.79403e-88
4.41992e-89
1.08573e-89
2.65922e-90
6.49411e-91
1.58133e-91
3.83946e-92
9.29537e-93
2.24397e-93
5.40168e-94
1.2966e-94
3.10352e-95
7.40763e-96
1.76314e-96
4.18485e-97
9.90526e-98
2.33803e-98
5.50348e-99
1.29191e-99
3.02441e-100
7.06103e-101
1.64406e-101
3.81766e-102
8.84117e-103
2.04202e-103
4.70386e-104
1.08068e-104
2.47624e-105
5.65909e-106
1.28992e-106
2.93256e-107
6.64973e-108
1.50396e-108
3.39276e-109
7.63405e-110
1.71336e-110
3.83562e-111
8.56494e-112
1.90773e-112
4.23858e-113
9.3937e-114
2.07669e-114
4.5796e-115
1.00742e-115
2.21068e-116
4.83924e-117
1.05674e-117
2.30199e-118
5.00249e-119
1.08448e-119
2.34539e-120
5.06022e-121
1.08915e-121
2.33871e-122
5.01001e-123
1.07073e-123
2.28296e-124
4.8563e-125
1.03063e-125
2.18218e-126
4.60975e-127
9.71552e-128
2.04296e-128
4.2861e-129
8.97176e-130
1.87374e-130
3.90448e-131
8.11783e-132
1.68401e-132
3.48564e-133
7.19872e-134
1.48343e-134
3.05016e-135
6.25783e-136
1.28108e-136
2.61686e-137
5.33389e-138
1.08484e-138
2.20169e-139
4.45873e-140
9.01029e-141
1.81694e-141
3.65613e-142
7.34149e-143
1.47107e-143
2.9415e-144
5.86944e-145
1.16875e-145
2.32243e-146
4.60539e-147
9.11372e-148
1.79984e-148
3.54718e-149
6.97667e-150
1.3694e-150
2.68247e-151
5.24402e-152
1.02311e-152
1.99209e-153
3.87106e-154
7.50739e-155
1.45308e-155
2.80692e-156
5.41152e-157
1.04126e-157
1.99962e-158
3.83261e-159
7.3316e-160
1.3998e-160
2.66744e-161
5.07332e-162
9.63076e-163
1.82474e-163
3.45079e-164
6.5135e-165
1.22713e-165
2.30757e-166
4.33115e-167
8.11416e-168
1.51732e-168
2.83208e-169
5.27633e-170
9.81208e-171
1.82135e-171
3.37468e-172
6.2414e-173
1.15224e-173
2.12334e-174
3.90582e-175
7.17177e-176
1.31451e-176
2.40505e-177
4.39253e-178
8.00821e-179
1.45744e-179
2.64776e-180
4.80183e-181
8.69312e-182
1.57104e-182
2.8343e-183
5.10449e-184
9.17719e-185
1.6471e-185
2.95112e-186
5.27852e-187
9.42535e-188
1.68014e-188
2.98993e-189
5.31181e-190
9.42096e-191
1.66809e-191
2.94863e-192
5.20353e-193
9.16759e-194
1.61248e-194
2.83151e-195
4.96397e-196
8.68817e-197
1.51816e-197
2.64852e-198
4.61299e-199
8.02159e-200
1.39264e-200
2.4139e-201
4.17739e-202
7.21766e-203
1.24508e-203
2.14442e-204
3.68753e-205
6.33107e-206
1.08527e-206
1.85744e-207
3.17406e-208
5.41552e-209
9.22553e-210
1.56917e-210
2.66489e-211
4.51879e-212
7.65065e-213
1.29334e-213
2.18305e-214
3.67921e-215
6.19141e-216
1.04032e-216
1.7454e-217
2.92395e-218
4.89097e-219
8.16907e-220
1.3624e-220
2.26879e-221
3.7726e-222
6.26395e-223
1.03853e-223
1.7193e-224
2.84219e-225
4.6916e-226
7.7332e-227
1.27283e-227
2.09196e-228
3.4333e-229
5.62664e-230
9.20799e-231
1.50474e-231
2.45551e-232
4.00135e-233
6.51115e-234
1.05803e-234
1.71683e-235
2.78194e-236
4.50156e-237
7.27402e-238
1.17377e-238
1.89166e-239
3.05846e-240
5.81417e-241
)
;

boundaryField
{
    sides
    {
        type            zeroGradient;
    }
    empty
    {
        type            empty;
    }
}


// ************************************************************************* //
