/*--------------------------------*- C++ -*----------------------------------*\
| =========                 |                                                 |
| \\      /  F ield         | OpenFOAM: The Open Source CFD Toolbox           |
|  \\    /   O peration     | Version:  2312                                  |
|   \\  /    A nd           | Website:  www.openfoam.com                      |
|    \\/     M anipulation  |                                                 |
\*---------------------------------------------------------------------------*/
FoamFile
{
    version     2.0;
    format      ascii;
    arch        "LSB;label=32;scalar=64";
    class       volScalarField;
    location    "3";
    object      T;
}
// * * * * * * * * * * * * * * * * * * * * * * * * * * * * * * * * * * * * * //

dimensions      [0 0 0 1 0 0 0];

internalField   nonuniform List<scalar> 
1000
(
6.81486e-09
6.83708e-09
6.89829e-09
6.9988e-09
7.13912e-09
7.31996e-09
7.54224e-09
7.80706e-09
8.11577e-09
8.46992e-09
8.87128e-09
9.32186e-09
9.82392e-09
1.038e-08
1.09927e-08
1.16653e-08
1.24009e-08
1.32033e-08
1.40764e-08
1.50244e-08
1.6052e-08
1.71642e-08
1.83663e-08
1.96642e-08
2.10641e-08
2.25728e-08
2.41973e-08
2.59455e-08
2.78255e-08
2.98463e-08
3.20174e-08
3.43488e-08
3.68514e-08
3.95368e-08
4.24174e-08
4.55063e-08
4.88177e-08
5.23665e-08
5.61689e-08
6.0242e-08
6.46039e-08
6.92742e-08
7.42734e-08
7.96237e-08
8.53486e-08
9.14731e-08
9.80238e-08
1.05029e-07
1.12519e-07
1.20525e-07
1.29083e-07
1.38227e-07
1.47998e-07
1.58434e-07
1.69581e-07
1.81485e-07
1.94194e-07
2.07761e-07
2.22242e-07
2.37694e-07
2.54182e-07
2.7177e-07
2.9053e-07
3.10536e-07
3.31867e-07
3.54608e-07
3.78847e-07
4.04679e-07
4.32204e-07
4.61528e-07
4.92764e-07
5.26031e-07
5.61454e-07
5.99167e-07
6.39313e-07
6.8204e-07
7.27507e-07
7.75883e-07
8.27343e-07
8.82077e-07
9.40283e-07
1.00217e-06
1.06796e-06
1.13789e-06
1.21221e-06
1.29117e-06
1.37506e-06
1.46417e-06
1.55881e-06
1.65929e-06
1.76598e-06
1.87923e-06
1.99942e-06
2.12696e-06
2.26228e-06
2.40583e-06
2.55808e-06
2.71954e-06
2.89072e-06
3.0722e-06
3.26454e-06
3.46838e-06
3.68437e-06
3.91318e-06
4.15555e-06
4.41223e-06
4.68402e-06
4.97176e-06
5.27635e-06
5.5987e-06
5.93981e-06
6.30071e-06
6.68247e-06
7.08624e-06
7.51322e-06
7.96466e-06
8.4419e-06
8.94631e-06
9.47936e-06
1.00426e-05
1.06376e-05
1.12661e-05
1.19298e-05
1.26306e-05
1.33705e-05
1.41514e-05
1.49757e-05
1.58454e-05
1.6763e-05
1.77309e-05
1.87517e-05
1.98282e-05
2.09631e-05
2.21596e-05
2.34206e-05
2.47494e-05
2.61495e-05
2.76245e-05
2.9178e-05
3.08141e-05
3.25367e-05
3.43502e-05
3.62591e-05
3.8268e-05
4.03819e-05
4.26058e-05
4.49451e-05
4.74053e-05
4.99923e-05
5.27122e-05
5.55713e-05
5.85763e-05
6.1734e-05
6.50517e-05
6.85368e-05
7.21973e-05
7.60414e-05
8.00775e-05
8.43145e-05
8.87618e-05
9.34289e-05
9.8326e-05
0.000103463
0.000108852
0.000114504
0.000120429
0.000126642
0.000133154
0.000139979
0.000147131
0.000154624
0.000162472
0.000170693
0.000179301
0.000188314
0.000197748
0.000207623
0.000217957
0.000228769
0.000240079
0.00025191
0.000264282
0.000277218
0.000290741
0.000304877
0.000319649
0.000335085
0.000351212
0.000368056
0.000385649
0.000404018
0.000423197
0.000443216
0.00046411
0.000485913
0.000508661
0.00053239
0.000557139
0.000582947
0.000609855
0.000637906
0.000667143
0.000697611
0.000729356
0.000762427
0.000796872
0.000832744
0.000870095
0.00090898
0.000949454
0.000991575
0.0010354
0.001081
0.00112843
0.00117776
0.00122905
0.00128238
0.00133781
0.00139542
0.00145528
0.00151748
0.00158209
0.00164919
0.00171887
0.00179122
0.00186632
0.00194427
0.00202515
0.00210908
0.00219615
0.00228645
0.0023801
0.00247719
0.00257785
0.00268219
0.00279031
0.00290234
0.0030184
0.00313862
0.00326312
0.00339203
0.00352549
0.00366363
0.0038066
0.00395454
0.00410758
0.0042659
0.00442962
0.00459893
0.00477396
0.00495489
0.00514189
0.00533512
0.00553475
0.00574097
0.00595395
0.00617389
0.00640096
0.00663536
0.00687728
0.00712693
0.0073845
0.0076502
0.00792424
0.00820684
0.00849821
0.00879857
0.00910814
0.00942716
0.00975585
0.0100945
0.0104432
0.0108023
0.0111721
0.0115528
0.0119446
0.0123478
0.0127626
0.0131894
0.0136283
0.0140797
0.0145439
0.015021
0.0155114
0.0160154
0.0165332
0.0170651
0.0176115
0.0181726
0.0187487
0.0193401
0.0199471
0.02057
0.0212092
0.0218648
0.0225374
0.023227
0.0239341
0.024659
0.025402
0.0261634
0.0269435
0.0277426
0.0285611
0.0293993
0.0302574
0.0311359
0.0320351
0.0329552
0.0338966
0.0348596
0.0358445
0.0368516
0.0378813
0.0389339
0.0400097
0.041109
0.0422321
0.0433793
0.0445509
0.0457472
0.0469686
0.0482153
0.0494877
0.0507859
0.0521103
0.0534612
0.0548389
0.0562435
0.0576755
0.059135
0.0606223
0.0621376
0.0636812
0.0652534
0.0668543
0.0684842
0.0701433
0.0718318
0.0735499
0.0752978
0.0770756
0.0788836
0.0807219
0.0825906
0.08449
0.08642
0.0883809
0.0903728
0.0923957
0.0944497
0.096535
0.0986516
0.1008
0.102979
0.105189
0.107432
0.109705
0.11201
0.114346
0.116714
0.119113
0.121543
0.124004
0.126496
0.129019
0.131573
0.134157
0.136772
0.139416
0.142091
0.144796
0.147531
0.150294
0.153087
0.155908
0.158758
0.161636
0.164542
0.167475
0.170435
0.173422
0.176435
0.179474
0.182538
0.185627
0.188741
0.191878
0.195038
0.198222
0.201427
0.204654
0.207903
0.211171
0.214459
0.217767
0.221093
0.224436
0.227797
0.231173
0.234566
0.237973
0.241394
0.244828
0.248274
0.251732
0.255201
0.258679
0.262166
0.265661
0.269164
0.272672
0.276186
0.279704
0.283225
0.286748
0.290273
0.293798
0.297322
0.300844
0.304364
0.307879
0.31139
0.314895
0.318392
0.321881
0.325361
0.328831
0.332288
0.335733
0.339165
0.342581
0.345981
0.349364
0.352729
0.356074
0.359398
0.3627
0.36598
0.369235
0.372465
0.375668
0.378843
0.38199
0.385107
0.388193
0.391246
0.394266
0.397252
0.400202
0.403115
0.405991
0.408827
0.411623
0.414379
0.417092
0.419761
0.422387
0.424967
0.427501
0.429987
0.432425
0.434814
0.437152
0.439439
0.441674
0.443856
0.445984
0.448058
0.450075
0.452036
0.45394
0.455786
0.457572
0.459299
0.460966
0.462572
0.464116
0.465598
0.467016
0.468372
0.469663
0.470889
0.47205
0.473145
0.474175
0.475137
0.476033
0.476861
0.477621
0.478314
0.478938
0.479493
0.47998
0.480397
0.480745
0.481023
0.481233
0.481372
0.481442
0.481442
0.481372
0.481233
0.481023
0.480745
0.480397
0.47998
0.479493
0.478938
0.478314
0.477621
0.476861
0.476033
0.475137
0.474175
0.473145
0.47205
0.470889
0.469663
0.468372
0.467016
0.465598
0.464116
0.462572
0.460966
0.459299
0.457572
0.455786
0.45394
0.452036
0.450075
0.448058
0.445984
0.443856
0.441674
0.439439
0.437152
0.434814
0.432425
0.429987
0.427501
0.424967
0.422387
0.419761
0.417092
0.414379
0.411623
0.408827
0.405991
0.403115
0.400202
0.397252
0.394266
0.391246
0.388193
0.385107
0.38199
0.378843
0.375668
0.372465
0.369235
0.36598
0.3627
0.359398
0.356074
0.352729
0.349364
0.345981
0.342581
0.339165
0.335733
0.332288
0.328831
0.325361
0.321881
0.318392
0.314895
0.31139
0.307879
0.304364
0.300844
0.297322
0.293798
0.290273
0.286748
0.283225
0.279704
0.276186
0.272672
0.269164
0.265661
0.262166
0.258679
0.255201
0.251732
0.248274
0.244828
0.241394
0.237973
0.234566
0.231173
0.227797
0.224436
0.221093
0.217767
0.214459
0.211171
0.207903
0.204654
0.201427
0.198222
0.195038
0.191878
0.188741
0.185627
0.182538
0.179474
0.176435
0.173422
0.170435
0.167475
0.164542
0.161636
0.158758
0.155908
0.153087
0.150294
0.147531
0.144796
0.142091
0.139416
0.136772
0.134157
0.131573
0.129019
0.126496
0.124004
0.121543
0.119113
0.116714
0.114346
0.11201
0.109705
0.107432
0.105189
0.102979
0.1008
0.0986516
0.096535
0.0944497
0.0923957
0.0903728
0.0883809
0.08642
0.08449
0.0825906
0.0807219
0.0788836
0.0770756
0.0752978
0.0735499
0.0718318
0.0701433
0.0684842
0.0668543
0.0652534
0.0636812
0.0621376
0.0606223
0.059135
0.0576755
0.0562435
0.0548389
0.0534612
0.0521103
0.0507859
0.0494877
0.0482153
0.0469686
0.0457472
0.0445509
0.0433793
0.0422321
0.041109
0.0400097
0.0389339
0.0378813
0.0368516
0.0358445
0.0348596
0.0338966
0.0329552
0.0320351
0.0311359
0.0302574
0.0293993
0.0285611
0.0277426
0.0269435
0.0261634
0.025402
0.024659
0.0239341
0.023227
0.0225374
0.0218648
0.0212092
0.02057
0.0199471
0.0193401
0.0187487
0.0181726
0.0176115
0.0170651
0.0165332
0.0160154
0.0155114
0.015021
0.0145439
0.0140797
0.0136283
0.0131894
0.0127626
0.0123478
0.0119446
0.0115528
0.0111721
0.0108023
0.0104432
0.0100945
0.00975585
0.00942716
0.00910814
0.00879857
0.00849821
0.00820684
0.00792424
0.0076502
0.0073845
0.00712693
0.00687728
0.00663536
0.00640096
0.00617389
0.00595395
0.00574097
0.00553475
0.00533512
0.00514189
0.00495489
0.00477396
0.00459893
0.00442962
0.0042659
0.00410758
0.00395454
0.0038066
0.00366363
0.00352549
0.00339203
0.00326312
0.00313862
0.0030184
0.00290234
0.00279031
0.00268219
0.00257785
0.00247719
0.0023801
0.00228645
0.00219615
0.00210908
0.00202515
0.00194427
0.00186632
0.00179122
0.00171887
0.00164919
0.00158209
0.00151748
0.00145528
0.00139542
0.00133781
0.00128238
0.00122905
0.00117776
0.00112843
0.001081
0.0010354
0.000991575
0.000949454
0.00090898
0.000870095
0.000832744
0.000796872
0.000762427
0.000729356
0.000697611
0.000667143
0.000637906
0.000609855
0.000582947
0.000557139
0.00053239
0.000508661
0.000485913
0.00046411
0.000443216
0.000423197
0.000404018
0.000385649
0.000368056
0.000351212
0.000335085
0.000319649
0.000304877
0.000290741
0.000277218
0.000264282
0.00025191
0.000240079
0.000228769
0.000217957
0.000207623
0.000197748
0.000188314
0.000179301
0.000170693
0.000162472
0.000154624
0.000147131
0.000139979
0.000133154
0.000126642
0.000120429
0.000114504
0.000108852
0.000103463
9.8326e-05
9.34289e-05
8.87618e-05
8.43145e-05
8.00775e-05
7.60414e-05
7.21973e-05
6.85368e-05
6.50517e-05
6.1734e-05
5.85763e-05
5.55713e-05
5.27122e-05
4.99923e-05
4.74053e-05
4.49451e-05
4.26058e-05
4.03819e-05
3.8268e-05
3.62591e-05
3.43502e-05
3.25367e-05
3.08141e-05
2.9178e-05
2.76245e-05
2.61495e-05
2.47494e-05
2.34206e-05
2.21596e-05
2.09631e-05
1.98282e-05
1.87517e-05
1.77309e-05
1.6763e-05
1.58454e-05
1.49757e-05
1.41514e-05
1.33705e-05
1.26306e-05
1.19298e-05
1.12661e-05
1.06376e-05
1.00426e-05
9.47936e-06
8.94631e-06
8.4419e-06
7.96466e-06
7.51322e-06
7.08624e-06
6.68247e-06
6.30071e-06
5.93981e-06
5.5987e-06
5.27635e-06
4.97176e-06
4.68402e-06
4.41223e-06
4.15555e-06
3.91318e-06
3.68437e-06
3.46838e-06
3.26454e-06
3.0722e-06
2.89072e-06
2.71954e-06
2.55808e-06
2.40583e-06
2.26228e-06
2.12696e-06
1.99942e-06
1.87923e-06
1.76598e-06
1.65929e-06
1.55881e-06
1.46417e-06
1.37506e-06
1.29117e-06
1.21221e-06
1.13789e-06
1.06796e-06
1.00217e-06
9.40283e-07
8.82077e-07
8.27343e-07
7.75883e-07
7.27507e-07
6.8204e-07
6.39313e-07
5.99167e-07
5.61454e-07
5.26031e-07
4.92764e-07
4.61528e-07
4.32204e-07
4.04679e-07
3.78847e-07
3.54608e-07
3.31867e-07
3.10536e-07
2.9053e-07
2.7177e-07
2.54182e-07
2.37694e-07
2.22242e-07
2.07761e-07
1.94194e-07
1.81485e-07
1.69581e-07
1.58434e-07
1.47998e-07
1.38227e-07
1.29083e-07
1.20525e-07
1.12519e-07
1.05029e-07
9.80238e-08
9.14731e-08
8.53486e-08
7.96237e-08
7.42734e-08
6.92742e-08
6.46039e-08
6.0242e-08
5.61689e-08
5.23665e-08
4.88177e-08
4.55063e-08
4.24174e-08
3.95368e-08
3.68514e-08
3.43488e-08
3.20174e-08
2.98463e-08
2.78255e-08
2.59455e-08
2.41973e-08
2.25728e-08
2.10641e-08
1.96642e-08
1.83663e-08
1.71642e-08
1.6052e-08
1.50244e-08
1.40764e-08
1.32033e-08
1.24009e-08
1.16653e-08
1.09927e-08
1.038e-08
9.82392e-09
9.32186e-09
8.87128e-09
8.46992e-09
8.11577e-09
7.80706e-09
7.54224e-09
7.31996e-09
7.13912e-09
6.9988e-09
6.89829e-09
6.83708e-09
6.81486e-09
)
;

boundaryField
{
    sides
    {
        type            zeroGradient;
    }
    empty
    {
        type            empty;
    }
}


// ************************************************************************* //
