/*--------------------------------*- C++ -*----------------------------------*\
| =========                 |                                                 |
| \\      /  F ield         | OpenFOAM: The Open Source CFD Toolbox           |
|  \\    /   O peration     | Version:  2312                                  |
|   \\  /    A nd           | Website:  www.openfoam.com                      |
|    \\/     M anipulation  |                                                 |
\*---------------------------------------------------------------------------*/
FoamFile
{
    version     2.0;
    format      ascii;
    arch        "LSB;label=32;scalar=64";
    class       volScalarField;
    location    "2.2";
    object      T;
}
// * * * * * * * * * * * * * * * * * * * * * * * * * * * * * * * * * * * * * //

dimensions      [0 0 0 1 0 0 0];

internalField   nonuniform List<scalar> 
1000
(
1.39338e-11
1.40168e-11
1.42459e-11
1.46233e-11
1.51526e-11
1.58389e-11
1.66886e-11
1.77099e-11
1.89124e-11
2.03076e-11
2.19086e-11
2.37305e-11
2.57906e-11
2.8108e-11
3.07046e-11
3.36043e-11
3.68343e-11
4.04244e-11
4.44076e-11
4.88206e-11
5.37038e-11
5.91015e-11
6.50629e-11
7.16416e-11
7.8897e-11
8.6894e-11
9.5704e-11
1.05405e-10
1.16083e-10
1.27831e-10
1.40754e-10
1.54962e-10
1.7058e-10
1.87742e-10
2.06597e-10
2.27304e-10
2.5004e-10
2.74999e-10
3.02389e-10
3.32442e-10
3.65408e-10
4.0156e-10
4.41199e-10
4.84649e-10
5.32266e-10
5.84439e-10
6.4159e-10
7.0418e-10
7.72711e-10
8.47732e-10
9.29836e-10
1.01967e-09
1.11795e-09
1.22544e-09
1.34297e-09
1.47146e-09
1.6119e-09
1.76536e-09
1.93301e-09
2.11613e-09
2.3161e-09
2.53442e-09
2.77272e-09
3.03277e-09
3.3165e-09
3.62599e-09
3.96351e-09
4.33151e-09
4.73265e-09
5.16983e-09
5.64618e-09
6.16509e-09
6.73024e-09
7.34561e-09
8.01551e-09
8.74463e-09
9.53801e-09
1.04011e-08
1.13399e-08
1.23607e-08
1.34706e-08
1.46769e-08
1.59878e-08
1.7412e-08
1.8959e-08
2.0639e-08
2.2463e-08
2.4443e-08
2.65917e-08
2.89231e-08
3.14521e-08
3.41949e-08
3.71688e-08
4.03926e-08
4.38866e-08
4.76726e-08
5.17739e-08
5.6216e-08
6.10261e-08
6.62335e-08
7.18696e-08
7.79686e-08
8.45669e-08
9.17039e-08
9.94217e-08
1.07766e-07
1.16785e-07
1.26532e-07
1.37062e-07
1.48437e-07
1.60722e-07
1.73985e-07
1.88303e-07
2.03755e-07
2.20427e-07
2.38412e-07
2.57809e-07
2.78724e-07
3.0127e-07
3.25571e-07
3.51755e-07
3.79964e-07
4.10346e-07
4.43062e-07
4.78284e-07
5.16194e-07
5.56989e-07
6.00879e-07
6.48087e-07
6.98854e-07
7.53436e-07
8.12105e-07
8.75154e-07
9.42895e-07
1.01566e-06
1.09381e-06
1.17771e-06
1.26778e-06
1.36444e-06
1.46816e-06
1.57942e-06
1.69874e-06
1.82669e-06
1.96385e-06
2.11086e-06
2.26838e-06
2.43713e-06
2.61788e-06
2.81142e-06
3.01863e-06
3.2404e-06
3.47773e-06
3.73163e-06
4.00321e-06
4.29363e-06
4.60412e-06
4.93602e-06
5.29069e-06
5.66964e-06
6.07442e-06
6.50671e-06
6.96825e-06
7.46094e-06
7.98674e-06
8.54777e-06
9.14624e-06
9.78451e-06
1.04651e-05
1.11906e-05
1.19638e-05
1.27877e-05
1.36654e-05
1.46002e-05
1.55957e-05
1.66554e-05
1.77833e-05
1.89835e-05
2.02604e-05
2.16186e-05
2.30628e-05
2.45983e-05
2.62303e-05
2.79647e-05
2.98073e-05
3.17646e-05
3.38431e-05
3.60499e-05
3.83924e-05
4.08783e-05
4.35159e-05
4.63138e-05
4.9281e-05
5.24271e-05
5.57622e-05
5.92967e-05
6.30417e-05
6.7009e-05
7.12107e-05
7.56597e-05
8.03695e-05
8.53542e-05
9.06288e-05
9.62087e-05
0.00010211
0.000108351
0.000114948
0.000121922
0.00012929
0.000137075
0.000145297
0.00015398
0.000163147
0.000172823
0.000183034
0.000193807
0.00020517
0.000217153
0.000229787
0.000243104
0.000257139
0.000271926
0.000287502
0.000303906
0.000321177
0.000339358
0.000358492
0.000378624
0.000399802
0.000422074
0.000445494
0.000470112
0.000495986
0.000523174
0.000551734
0.00058173
0.000613228
0.000646293
0.000680998
0.000717414
0.000755618
0.000795687
0.000837705
0.000881754
0.000927924
0.000976305
0.00102699
0.00108008
0.00113568
0.00119388
0.0012548
0.00131856
0.00138526
0.00145502
0.00152798
0.00160426
0.001684
0.00176732
0.00185438
0.00194532
0.00204028
0.00213943
0.00224293
0.00235095
0.00246365
0.0025812
0.0027038
0.00283163
0.00296489
0.00310376
0.00324845
0.00339918
0.00355616
0.00371961
0.00388976
0.00406684
0.00425109
0.00444276
0.00464211
0.00484939
0.00506486
0.00528881
0.00552151
0.00576324
0.00601431
0.006275
0.00654563
0.00682652
0.00711797
0.00742033
0.00773392
0.0080591
0.0083962
0.00874558
0.00910762
0.00948267
0.00987113
0.0102734
0.0106898
0.0111208
0.0115668
0.0120281
0.0125053
0.0129988
0.0135089
0.0140361
0.014581
0.0151438
0.0157251
0.0163254
0.0169451
0.0175847
0.0182447
0.0189256
0.0196279
0.020352
0.0210985
0.0218679
0.0226608
0.0234775
0.0243188
0.025185
0.0260767
0.0269945
0.0279389
0.0289104
0.0299096
0.030937
0.0319932
0.0330787
0.034194
0.0353398
0.0365165
0.0377247
0.038965
0.0402379
0.041544
0.0428837
0.0442577
0.0456665
0.0471105
0.0485904
0.0501066
0.0516597
0.0532501
0.0548785
0.0565452
0.0582508
0.0599958
0.0617806
0.0636057
0.0654715
0.0673785
0.0693271
0.0713177
0.0733508
0.0754267
0.0775458
0.0797085
0.0819151
0.0841659
0.0864613
0.0888015
0.0911869
0.0936177
0.0960941
0.0986163
0.101185
0.103799
0.10646
0.109167
0.111921
0.114722
0.11757
0.120464
0.123405
0.126393
0.129427
0.132508
0.135636
0.13881
0.14203
0.145297
0.148609
0.151967
0.15537
0.158818
0.16231
0.165847
0.169427
0.173051
0.176718
0.180427
0.184178
0.18797
0.191802
0.195675
0.199586
0.203536
0.207524
0.211548
0.215609
0.219705
0.223834
0.227998
0.232193
0.23642
0.240677
0.244963
0.249277
0.253618
0.257984
0.262375
0.266789
0.271225
0.275681
0.280156
0.284649
0.289158
0.293682
0.29822
0.302769
0.307329
0.311897
0.316472
0.321052
0.325637
0.330223
0.33481
0.339396
0.343978
0.348556
0.353127
0.357689
0.362241
0.366781
0.371307
0.375817
0.380309
0.384781
0.389232
0.39366
0.398062
0.402436
0.406782
0.411096
0.415376
0.419622
0.423831
0.428
0.432129
0.436214
0.440255
0.444249
0.448195
0.45209
0.455932
0.45972
0.463452
0.467126
0.47074
0.474293
0.477782
0.481206
0.484563
0.487851
0.491069
0.494215
0.497288
0.500285
0.503206
0.506048
0.508811
0.511492
0.514091
0.516606
0.519036
0.521379
0.523634
0.5258
0.527876
0.52986
0.531752
0.533551
0.535255
0.536864
0.538376
0.539792
0.541109
0.542329
0.543448
0.544468
0.545388
0.546207
0.546924
0.54754
0.548054
0.548465
0.548773
0.548979
0.549082
0.549082
0.548979
0.548773
0.548465
0.548054
0.54754
0.546924
0.546207
0.545388
0.544468
0.543448
0.542329
0.541109
0.539792
0.538376
0.536864
0.535255
0.533551
0.531752
0.52986
0.527876
0.5258
0.523634
0.521379
0.519036
0.516606
0.514091
0.511492
0.508811
0.506048
0.503206
0.500285
0.497288
0.494215
0.491069
0.487851
0.484563
0.481206
0.477782
0.474293
0.47074
0.467126
0.463452
0.45972
0.455932
0.45209
0.448195
0.444249
0.440255
0.436214
0.432129
0.428
0.423831
0.419622
0.415376
0.411096
0.406782
0.402436
0.398062
0.39366
0.389232
0.384781
0.380309
0.375817
0.371307
0.366781
0.362241
0.357689
0.353127
0.348556
0.343978
0.339396
0.33481
0.330223
0.325637
0.321052
0.316472
0.311897
0.307329
0.302769
0.29822
0.293682
0.289158
0.284649
0.280156
0.275681
0.271225
0.266789
0.262375
0.257984
0.253618
0.249277
0.244963
0.240677
0.23642
0.232193
0.227998
0.223834
0.219705
0.215609
0.211548
0.207524
0.203536
0.199586
0.195675
0.191802
0.18797
0.184178
0.180427
0.176718
0.173051
0.169427
0.165847
0.16231
0.158818
0.15537
0.151967
0.148609
0.145297
0.14203
0.13881
0.135636
0.132508
0.129427
0.126393
0.123405
0.120464
0.11757
0.114722
0.111921
0.109167
0.10646
0.103799
0.101185
0.0986163
0.0960941
0.0936177
0.0911869
0.0888015
0.0864613
0.0841659
0.0819151
0.0797085
0.0775458
0.0754267
0.0733508
0.0713177
0.0693271
0.0673785
0.0654715
0.0636057
0.0617806
0.0599958
0.0582508
0.0565452
0.0548785
0.0532501
0.0516597
0.0501066
0.0485904
0.0471105
0.0456665
0.0442577
0.0428837
0.041544
0.0402379
0.038965
0.0377247
0.0365165
0.0353398
0.034194
0.0330787
0.0319932
0.030937
0.0299096
0.0289104
0.0279389
0.0269945
0.0260767
0.025185
0.0243188
0.0234775
0.0226608
0.0218679
0.0210985
0.020352
0.0196279
0.0189256
0.0182447
0.0175847
0.0169451
0.0163254
0.0157251
0.0151438
0.014581
0.0140361
0.0135089
0.0129988
0.0125053
0.0120281
0.0115668
0.0111208
0.0106898
0.0102734
0.00987113
0.00948267
0.00910762
0.00874558
0.0083962
0.0080591
0.00773392
0.00742033
0.00711797
0.00682652
0.00654563
0.006275
0.00601431
0.00576324
0.00552151
0.00528881
0.00506486
0.00484939
0.00464211
0.00444276
0.00425109
0.00406684
0.00388976
0.00371961
0.00355616
0.00339918
0.00324845
0.00310376
0.00296489
0.00283163
0.0027038
0.0025812
0.00246365
0.00235095
0.00224293
0.00213943
0.00204028
0.00194532
0.00185438
0.00176732
0.001684
0.00160426
0.00152798
0.00145502
0.00138526
0.00131856
0.0012548
0.00119388
0.00113568
0.00108008
0.00102699
0.000976305
0.000927924
0.000881754
0.000837705
0.000795687
0.000755618
0.000717414
0.000680998
0.000646293
0.000613228
0.00058173
0.000551734
0.000523174
0.000495986
0.000470112
0.000445494
0.000422074
0.000399802
0.000378624
0.000358492
0.000339358
0.000321177
0.000303906
0.000287502
0.000271926
0.000257139
0.000243104
0.000229787
0.000217153
0.00020517
0.000193807
0.000183034
0.000172823
0.000163147
0.00015398
0.000145297
0.000137075
0.00012929
0.000121922
0.000114948
0.000108351
0.00010211
9.62087e-05
9.06288e-05
8.53542e-05
8.03695e-05
7.56597e-05
7.12107e-05
6.7009e-05
6.30417e-05
5.92967e-05
5.57622e-05
5.24271e-05
4.9281e-05
4.63138e-05
4.35159e-05
4.08783e-05
3.83924e-05
3.60499e-05
3.38431e-05
3.17646e-05
2.98073e-05
2.79647e-05
2.62303e-05
2.45983e-05
2.30628e-05
2.16186e-05
2.02604e-05
1.89835e-05
1.77833e-05
1.66554e-05
1.55957e-05
1.46002e-05
1.36654e-05
1.27877e-05
1.19638e-05
1.11906e-05
1.04651e-05
9.78451e-06
9.14624e-06
8.54777e-06
7.98674e-06
7.46094e-06
6.96825e-06
6.50671e-06
6.07442e-06
5.66964e-06
5.29069e-06
4.93602e-06
4.60412e-06
4.29363e-06
4.00321e-06
3.73163e-06
3.47773e-06
3.2404e-06
3.01863e-06
2.81142e-06
2.61788e-06
2.43713e-06
2.26838e-06
2.11086e-06
1.96385e-06
1.82669e-06
1.69874e-06
1.57942e-06
1.46816e-06
1.36444e-06
1.26778e-06
1.17771e-06
1.09381e-06
1.01566e-06
9.42895e-07
8.75154e-07
8.12105e-07
7.53436e-07
6.98854e-07
6.48087e-07
6.00879e-07
5.56989e-07
5.16194e-07
4.78284e-07
4.43062e-07
4.10346e-07
3.79964e-07
3.51755e-07
3.25571e-07
3.0127e-07
2.78724e-07
2.57809e-07
2.38412e-07
2.20427e-07
2.03755e-07
1.88303e-07
1.73985e-07
1.60722e-07
1.48437e-07
1.37062e-07
1.26532e-07
1.16785e-07
1.07766e-07
9.94217e-08
9.17039e-08
8.45669e-08
7.79686e-08
7.18696e-08
6.62335e-08
6.10261e-08
5.6216e-08
5.17739e-08
4.76726e-08
4.38866e-08
4.03926e-08
3.71688e-08
3.41949e-08
3.14521e-08
2.89231e-08
2.65917e-08
2.4443e-08
2.2463e-08
2.0639e-08
1.8959e-08
1.7412e-08
1.59878e-08
1.46769e-08
1.34706e-08
1.23607e-08
1.13399e-08
1.04011e-08
9.53801e-09
8.74463e-09
8.01551e-09
7.34561e-09
6.73024e-09
6.16509e-09
5.64618e-09
5.16983e-09
4.73265e-09
4.33151e-09
3.96351e-09
3.62599e-09
3.3165e-09
3.03277e-09
2.77272e-09
2.53442e-09
2.3161e-09
2.11613e-09
1.93301e-09
1.76536e-09
1.6119e-09
1.47146e-09
1.34297e-09
1.22544e-09
1.11795e-09
1.01967e-09
9.29836e-10
8.47732e-10
7.72711e-10
7.0418e-10
6.4159e-10
5.84439e-10
5.32266e-10
4.84649e-10
4.41199e-10
4.0156e-10
3.65408e-10
3.32442e-10
3.02389e-10
2.74999e-10
2.5004e-10
2.27304e-10
2.06597e-10
1.87742e-10
1.7058e-10
1.54962e-10
1.40754e-10
1.27831e-10
1.16083e-10
1.05405e-10
9.5704e-11
8.6894e-11
7.8897e-11
7.16416e-11
6.50629e-11
5.91015e-11
5.37038e-11
4.88206e-11
4.44076e-11
4.04244e-11
3.68343e-11
3.36043e-11
3.07046e-11
2.8108e-11
2.57906e-11
2.37305e-11
2.19086e-11
2.03076e-11
1.89124e-11
1.77099e-11
1.66886e-11
1.58389e-11
1.51526e-11
1.46233e-11
1.42459e-11
1.40168e-11
1.39338e-11
)
;

boundaryField
{
    sides
    {
        type            zeroGradient;
    }
    empty
    {
        type            empty;
    }
}


// ************************************************************************* //
