/*--------------------------------*- C++ -*----------------------------------*\
| =========                 |                                                 |
| \\      /  F ield         | OpenFOAM: The Open Source CFD Toolbox           |
|  \\    /   O peration     | Version:  2312                                  |
|   \\  /    A nd           | Website:  www.openfoam.com                      |
|    \\/     M anipulation  |                                                 |
\*---------------------------------------------------------------------------*/
FoamFile
{
    version     2.0;
    format      ascii;
    arch        "LSB;label=32;scalar=64";
    class       volScalarField;
    location    "4.2";
    object      T;
}
// * * * * * * * * * * * * * * * * * * * * * * * * * * * * * * * * * * * * * //

dimensions      [0 0 0 1 0 0 0];

internalField   nonuniform List<scalar> 
1000
(
0
0
0
0
0
0
0
0
0
0
0
0
0
0
0
0
0
0
0
0
0
0
0
0
0
0
0
0
0
0
0
0
0
0
0
0
0
0
0
0
0
0
0
0
0
0
0
0
0
0
0
0
0
0
0
0
0
0
0
0
0
0
0
0
0
0
0
0
0
0
0
0
0
0
0
0
0
0
0
0
0
0
0
0
0
0
0
0
0
0
0
0
0
0
0
0
0
0
0
0
0
0
0
0
0
0
0
0
0
0
0
0
0
0
0
0
0
0
0
0
0
0
0
0
0
0
0
0
0
0
0
0
0
0
0
0
0
0
0
0
0
0
0
0
0
0
0
0
0
0
0
0
0
0
0
0
0
0
0
0
0
0
0
0
0
0
0
0
0
0
0
0
0
0
0
0
0
0
0
0
0
0
0
0
0
0
0
0
0
0
0
0
0
0
0
0
0
0
0
0
0
0
0
0
0
0
0
0
0
0
0
0
0
0
0
0
0
0
0
0
0
0
0
0
0
0
0
0
0
0
0
0
0
0
0
0
0
0
0
0
0
0
0
0
0
0
0
0
0
0
0
0
0
0
0
0
0
0
0
0
0
0
0
0
0
0
0
0
0
0
0
0
0
0
0
0
0
0
0
0
0
0
0
0
0
0
0
0
0
0
0
0
0
0
0
0
0
0
0
0
0
0
0
0
0
0
0
0
0
0
0
0
0
0
0
0
0
0
0
0
0
0
0
0
0
0
0
0
0
0
0
0
0
0
0
0
0
0
0
0
0
0
0
0
0
0
0
0
0
0
0
0
0
0
0
0
0
0
0
0
0
0
0
0
0
0
0
0
0
0
0
0
0
0
0
0
0
0
0
0
0
0
0
0
0
0
0
0
0
0
0
0
0
0
0
0
0
0
0
0
0
0
0
0
5.79695e-151
-3.89147e-135
2.3383e-127
-1.33904e-123
-2.32905e-121
-1.79881e-119
-7.19153e-118
-4.52363e-117
1.43094e-114
1.15543e-112
5.72059e-111
2.17805e-109
6.87943e-108
1.87311e-106
4.50161e-105
9.70628e-104
1.90049e-102
3.41105e-101
5.65459e-100
8.71194e-99
1.25403e-97
1.69405e-96
2.15604e-95
2.59398e-94
2.95907e-93
3.20899e-92
3.31613e-91
3.27238e-90
3.08952e-89
2.79547e-88
2.4279e-87
2.02686e-86
1.62848e-85
1.26068e-84
9.41303e-84
6.78507e-83
4.72527e-82
3.1816e-81
2.07234e-80
1.30639e-79
7.97295e-79
4.71163e-78
2.69601e-77
1.49334e-76
8.00281e-76
4.14528e-75
2.07216e-74
9.9725e-74
4.60325e-73
2.02573e-72
8.41228e-72
3.23493e-71
1.10645e-70
3.00646e-70
3.25898e-70
-3.5412e-69
-3.897e-68
-2.75522e-67
-1.65051e-66
-9.0023e-66
-4.60583e-65
-2.24466e-64
-1.05148e-63
-4.76175e-63
-2.09303e-62
-8.95509e-62
-3.7375e-61
-1.52417e-60
-6.08137e-60
-2.37661e-59
-9.10529e-59
-3.42251e-58
-1.26299e-57
-4.57839e-57
-1.63121e-56
-5.71478e-56
-1.96956e-55
-6.68031e-55
-2.23073e-54
-7.33636e-54
-2.37711e-53
-7.59102e-53
-2.38989e-52
-7.42033e-52
-2.27286e-51
-6.87009e-51
-2.04985e-50
-6.03918e-50
-1.75733e-49
-5.05202e-49
-1.43522e-48
-4.03014e-48
-1.11881e-47
-3.07119e-47
-8.33767e-47
-2.23885e-46
-5.94692e-46
-1.56271e-45
-4.06262e-45
-1.04492e-44
-2.65895e-44
-6.69387e-44
-1.66714e-43
-4.10751e-43
-1.0011e-42
-2.41351e-42
-5.75553e-42
-1.35762e-41
-3.16765e-41
-7.31101e-41
-1.6693e-40
-3.77103e-40
-8.43e-40
-1.86523e-39
-4.08595e-39
-8.86438e-39
-1.90529e-38
-4.05892e-38
-8.57405e-38
-1.79673e-37
-3.73671e-37
-7.71569e-37
-1.58225e-36
-3.22315e-36
-6.52261e-36
-1.31116e-35
-2.61734e-35
-5.18601e-35
-1.01927e-34
-1.98546e-34
-3.82921e-34
-7.30332e-34
-1.37569e-33
-2.5554e-33
-4.67319e-33
-8.39779e-33
-1.47968e-32
-2.54971e-32
-4.28292e-32
-6.98402e-32
-1.09927e-31
-1.65613e-31
-2.35642e-31
-3.09091e-31
-3.54729e-31
-3.03657e-31
-2.41089e-32
7.09334e-31
2.24145e-30
5.02872e-30
9.53787e-30
1.59374e-29
2.3394e-29
2.86999e-29
2.38993e-29
-7.33051e-30
-9.43395e-29
-2.83737e-28
-6.38896e-28
-1.2248e-27
-2.05812e-27
-2.98527e-27
-3.42474e-27
-1.87228e-27
4.98013e-27
2.37106e-26
6.64497e-26
1.5418e-25
3.21089e-25
6.19589e-25
1.12476e-24
1.93551e-24
3.16729e-24
4.92807e-24
7.26498e-24
1.00651e-23
1.28921e-23
1.47445e-23
1.37375e-23
6.75263e-24
-1.08277e-23
-4.50488e-23
-1.02524e-22
-1.8805e-22
-2.99615e-22
-4.19331e-22
-4.98569e-22
-4.35615e-22
-4.49357e-23
9.80869e-22
3.11134e-21
7.00878e-21
1.3527e-20
2.36411e-20
3.82547e-20
5.78092e-20
8.16085e-20
1.06769e-19
1.26728e-19
1.29332e-19
9.46499e-20
-7.06801e-21
-2.16512e-19
-5.8422e-19
-1.16537e-18
-2.0079e-18
-3.13092e-18
-4.49027e-18
-5.92907e-18
-7.11344e-18
-7.45845e-18
-6.05108e-18
-1.58554e-18
7.64984e-18
2.36808e-17
4.8559e-17
8.37499e-17
1.29053e-16
1.80998e-16
2.30955e-16
2.63948e-16
2.58653e-16
1.78452e-16
-5.46978e-17
-6.22426e-16
-1.79164e-15
-3.51134e-15
-4.9971e-15
-4.04413e-15
4.88507e-15
1.97622e-14
2.63111e-14
5.66671e-15
-4.7125e-14
-8.50311e-14
-4.42455e-14
9.7264e-14
2.3379e-13
1.74535e-13
-1.74519e-13
-6.02568e-13
-5.7772e-13
2.02094e-13
1.43616e-12
1.77098e-12
1.91198e-13
-3.05849e-12
-5.03752e-12
-2.44651e-12
5.47512e-12
1.30668e-11
1.09819e-11
-5.80589e-12
-3.02791e-11
-3.72508e-11
-8.30914e-12
5.55616e-11
1.05651e-10
7.65136e-11
-6.14131e-11
-2.46233e-10
-2.93297e-10
-7.50064e-11
4.09486e-10
8.38082e-10
7.11873e-10
-2.29514e-10
-1.72735e-09
-2.5684e-09
-1.55039e-09
1.80475e-09
6.12403e-09
7.51377e-09
3.16443e-09
-7.72479e-09
-2.00263e-08
-2.20812e-08
-7.24141e-09
2.61793e-08
6.292e-08
6.78887e-08
2.37097e-08
-7.63588e-08
-1.89449e-07
-2.1884e-07
-1.0692e-07
1.75452e-07
5.37613e-07
7.25145e-07
5.12672e-07
-2.23028e-07
-1.35402e-06
-2.3065e-06
-2.23932e-06
-6.77155e-07
2.52359e-06
6.36363e-06
8.45381e-06
6.67495e-06
-3.83146e-07
-1.24044e-05
-2.53762e-05
-3.10868e-05
-2.35394e-05
1.91055e-06
4.47522e-05
9.29269e-05
0.000121374
0.000106649
3.22406e-05
-0.000109433
-0.000298309
-0.000472002
-0.000529612
-0.000409716
-4.63271e-05
0.000584015
0.00141132
0.00223089
0.00268519
0.00247773
0.00136157
-0.000927594
-0.00445541
-0.00895044
-0.0137229
-0.0176024
-0.0187257
-0.0163226
-0.00882872
0.0054666
0.0279723
0.0596616
0.10094
0.151569
0.210659
0.276735
0.347864
0.421822
0.49629
0.569038
0.638092
0.701852
0.759169
0.809363
0.852203
0.887849
0.916764
0.939631
0.957256
0.97049
0.980164
0.987043
0.991795
0.994978
0.997042
0.998333
0.999109
0.999555
0.999797
0.999919
0.999976
0.999997
1
1
1
1
1
1
1
1
1
1
1
1
1
1
1
1
1
1
1
1
1
1
1
1
0.999999
0.999999
0.999999
1
1
1
1
1
0.999997
0.999994
0.999992
0.999993
1
1.00001
1.00003
1.00003
1.00002
0.999998
0.999955
0.999907
0.999879
0.999893
0.999968
1.00011
1.0003
1.00047
1.00053
1.00041
1.00005
0.999415
0.998588
0.997769
0.997316
0.997525
0.998642
1.00094
1.00446
1.00896
1.01373
1.0176
1.01871
1.0163
1.0088
0.994496
0.971978
0.940276
0.898986
0.848347
0.78925
0.723169
0.652039
0.578082
0.503618
0.430876
0.361831
0.29808
0.240773
0.190588
0.147757
0.11212
0.0832113
0.0603505
0.0427306
0.0295006
0.0198292
0.0129524
0.00820226
0.0050199
0.00295668
0.00166609
0.000890422
0.000445161
0.000203243
8.06663e-05
2.43881e-05
3.04583e-06
6.69919e-17
6.6105e-17
6.54615e-17
6.40859e-17
6.20823e-17
5.95745e-17
5.66785e-17
5.34993e-17
5.01305e-17
4.6654e-17
4.31406e-17
3.965e-17
3.62317e-17
3.29256e-17
2.9763e-17
2.67673e-17
2.39548e-17
2.13358e-17
1.89155e-17
1.66945e-17
1.46699e-17
1.28358e-17
1.11843e-17
9.70553e-18
8.38868e-18
7.22214e-18
6.19396e-18
5.29214e-18
4.50488e-18
3.82078e-18
3.22897e-18
2.71921e-18
2.28199e-18
1.90853e-18
1.59082e-18
1.32161e-18
1.09437e-18
9.03281e-19
7.43193e-19
6.09563e-19
4.98417e-19
4.06296e-19
3.30207e-19
2.67572e-19
2.16183e-19
1.7416e-19
1.39905e-19
1.12072e-19
8.9527e-20
7.1321e-20
5.66635e-20
4.48979e-20
3.54813e-20
2.79665e-20
2.19865e-20
1.7241e-20
1.34857e-20
1.05221e-20
8.18949e-21
6.35844e-21
4.92487e-21
3.8054e-21
2.93343e-21
2.25596e-21
1.73092e-21
1.32502e-21
1.01199e-21
7.71155e-22
5.86317e-22
4.44788e-22
3.36676e-22
2.54281e-22
1.91631e-22
1.44103e-22
1.08129e-22
8.09615e-23
6.04902e-23
4.5099e-23
3.35528e-23
2.491e-23
1.84547e-23
1.36436e-23
1.00657e-23
7.41069e-24
5.44465e-24
3.99194e-24
2.92079e-24
2.13267e-24
1.55401e-24
1.13004e-24
8.20058e-25
5.93893e-25
4.29226e-25
3.09584e-25
2.22837e-25
1.60072e-25
1.14752e-25
8.20969e-26
5.86156e-26
4.17658e-26
2.96997e-26
2.10768e-26
1.49274e-26
1.05508e-26
7.44246e-27
5.23929e-27
3.68091e-27
2.58088e-27
1.80596e-27
1.26119e-27
8.78983e-28
6.11384e-28
4.24404e-28
2.94021e-28
2.03288e-28
1.40275e-28
9.6602e-29
6.63939e-29
4.55416e-29
3.11765e-29
2.13003e-29
1.4524e-29
9.88393e-30
6.71299e-30
4.55037e-30
3.07838e-30
2.07848e-30
1.40061e-30
9.41972e-31
6.32279e-31
4.23576e-31
2.83209e-31
1.88989e-31
)
;

boundaryField
{
    sides
    {
        type            zeroGradient;
    }
    empty
    {
        type            empty;
    }
}


// ************************************************************************* //
