/*--------------------------------*- C++ -*----------------------------------*\
| =========                 |                                                 |
| \\      /  F ield         | OpenFOAM: The Open Source CFD Toolbox           |
|  \\    /   O peration     | Version:  2312                                  |
|   \\  /    A nd           | Website:  www.openfoam.com                      |
|    \\/     M anipulation  |                                                 |
\*---------------------------------------------------------------------------*/
FoamFile
{
    version     2.0;
    format      ascii;
    arch        "LSB;label=32;scalar=64";
    class       volScalarField;
    location    "2.4";
    object      T;
}
// * * * * * * * * * * * * * * * * * * * * * * * * * * * * * * * * * * * * * //

dimensions      [0 0 0 1 0 0 0];

internalField   nonuniform List<scalar> 
1000
(
0
0
0
0
0
0
0
0
0
0
0
0
0
0
0
0
0
0
0
0
0
0
0
0
0
0
0
0
0
0
5.43472e-323
-6.27463e-322
7.40604e-321
-8.92925e-320
1.07011e-318
-1.27843e-317
1.52247e-316
-1.80734e-315
2.1387e-314
-2.52274e-313
2.96622e-312
-3.47651e-311
4.06149e-310
-4.72963e-309
5.4899e-308
-6.35178e-307
7.32513e-306
-8.42017e-305
9.64735e-304
-1.10173e-302
1.25405e-301
-1.42274e-300
1.60881e-299
-1.81321e-298
2.03681e-297
-2.28039e-296
2.5446e-295
-2.82995e-294
3.13677e-293
-3.46519e-292
3.81513e-291
-4.18623e-290
4.5779e-289
-4.98924e-288
5.41905e-287
-5.86582e-286
6.32772e-285
-6.80258e-284
7.28794e-283
-7.78102e-282
8.27873e-281
-8.77773e-280
9.27446e-279
-9.76513e-278
1.02458e-276
-1.07124e-275
1.11609e-274
-1.15872e-273
1.19872e-272
-1.2357e-271
1.26928e-270
-1.29913e-269
1.32492e-268
-1.34636e-267
1.36323e-266
-1.37533e-265
1.3825e-264
-1.38466e-263
1.38176e-262
-1.37384e-261
1.36094e-260
-1.3432e-259
1.32081e-258
-1.29397e-257
1.26297e-256
-1.22812e-255
1.18977e-254
-1.14829e-253
1.10409e-252
-1.05758e-251
1.00919e-250
-9.59353e-250
9.08502e-249
-8.57054e-248
8.05416e-247
-7.53973e-246
7.03088e-245
-6.53095e-244
6.04295e-243
-5.56958e-242
5.11317e-241
-4.67571e-240
4.25879e-239
-3.86369e-238
3.49131e-237
-3.14224e-236
2.81674e-235
-2.51482e-234
2.2362e-233
-1.9804e-232
1.74674e-231
-1.53437e-230
1.34229e-229
-1.16944e-228
1.01464e-227
-8.76692e-227
7.54348e-226
-6.4637e-225
5.51527e-224
-4.68622e-223
3.96498e-222
-3.34052e-221
2.80243e-220
-2.34097e-219
1.94711e-218
-1.61253e-217
1.32967e-216
-1.09166e-215
8.9235e-215
-7.26231e-214
5.88437e-213
-4.7468e-212
3.81216e-211
-3.04791e-210
2.42596e-209
-1.92225e-208
1.51624e-207
-1.19057e-206
9.30584e-206
-7.24043e-205
5.60753e-204
-4.32283e-203
3.31699e-202
-2.53332e-201
1.92573e-200
-1.45698e-199
1.09711e-198
-8.22206e-198
6.1324e-197
-4.55187e-196
3.3624e-195
-2.47172e-194
1.80812e-193
-1.3162e-192
9.53397e-192
-6.87182e-191
4.92837e-190
-3.51688e-189
2.49703e-188
-1.76396e-187
1.23977e-186
-8.66895e-186
6.03053e-185
-4.17345e-184
2.87323e-183
-1.96776e-182
1.34055e-181
-9.08432e-181
6.1233e-180
-4.10534e-179
2.73759e-178
-1.81564e-177
1.19762e-176
-7.85635e-176
5.12531e-175
-3.32507e-174
2.14511e-173
-1.37609e-172
8.77771e-172
-5.56715e-171
3.51064e-170
-2.20102e-169
1.37192e-168
-8.50124e-168
5.23682e-167
-3.20676e-166
1.9519e-165
-1.18094e-164
7.10148e-164
-4.24431e-163
2.52105e-162
-1.48816e-161
8.72951e-161
-5.08841e-160
2.94715e-159
-1.69602e-158
9.69707e-158
-5.50821e-157
3.10824e-156
-1.74232e-155
9.70123e-155
-5.36517e-154
2.94694e-153
-1.60754e-152
8.70818e-152
-4.68424e-151
2.50189e-150
-1.32672e-149
6.9847e-149
-3.65037e-148
1.89371e-147
-9.75083e-147
4.98297e-146
-2.52706e-145
1.27171e-144
-6.34982e-144
3.14557e-143
-1.54582e-142
7.53524e-142
-3.64308e-141
1.74673e-140
-8.30469e-140
3.91479e-139
-1.82949e-138
8.47487e-138
-3.891e-137
1.77034e-136
-7.98095e-136
3.56446e-135
-1.5769e-134
6.90903e-134
-2.99748e-133
1.28749e-132
-5.4739e-132
2.30318e-131
-9.5884e-131
3.94868e-130
-1.6082e-129
6.47595e-129
-2.57762e-128
1.01382e-127
-3.93909e-127
1.51138e-126
-5.72443e-126
2.13945e-125
-7.88663e-125
2.86611e-124
-1.02631e-123
3.61902e-123
-1.25587e-122
4.28569e-122
-1.43698e-121
4.72953e-121
-1.52627e-120
4.823e-120
-1.49e-119
4.49156e-119
-1.31796e-118
3.75281e-118
-1.03269e-117
2.7306e-117
-6.8797e-117
1.62966e-116
-3.54414e-116
6.72761e-116
-9.59828e-116
2.32616e-116
5.25265e-115
-2.70609e-114
9.58088e-114
-2.80549e-113
7.04599e-113
-1.48794e-112
2.36541e-112
-1.28009e-112
-9.60061e-112
5.28491e-111
-1.80147e-110
4.77452e-110
-9.91075e-110
1.35673e-109
3.75516e-110
-1.05083e-108
4.41119e-108
-1.25954e-107
2.64928e-107
-3.3596e-107
-2.61816e-107
3.29096e-106
-1.23353e-105
3.10385e-105
-5.12614e-105
1.50003e-105
2.66091e-104
-1.19236e-103
3.18066e-103
-5.32576e-103
1.24978e-103
2.88427e-102
-1.2275e-101
3.02448e-101
-4.10471e-101
-3.11022e-101
3.79274e-100
-1.2612e-99
2.42518e-99
-1.26366e-99
-1.04542e-98
4.69147e-98
-1.08406e-97
1.05725e-97
2.89709e-97
-1.70661e-96
4.33269e-96
-4.86552e-96
-9.61134e-96
6.38206e-95
-1.62981e-94
1.69951e-94
4.2011e-94
-2.47288e-93
5.76638e-93
-4.15442e-93
-2.14656e-92
9.60243e-92
-1.82678e-91
7.15419e-93
1.08681e-90
-3.503e-90
4.4748e-90
7.17667e-90
-4.92724e-89
1.08261e-88
-3.35175e-89
-5.49059e-88
1.84487e-87
-2.18634e-87
-4.59998e-87
2.64486e-86
-4.89321e-86
-1.74058e-86
3.39896e-85
-8.5051e-85
3.51774e-85
4.05776e-84
-1.31353e-83
1.15522e-83
4.63656e-83
-1.90481e-82
2.27147e-82
5.25583e-82
-2.67531e-81
3.72867e-81
6.20444e-81
-3.70952e-80
5.52507e-80
8.04062e-80
-5.12996e-79
7.5708e-79
1.17381e-78
-7.0876e-78
9.57109e-78
1.88568e-77
-9.71835e-77
1.08272e-76
3.16464e-76
-1.30325e-75
9.95561e-76
5.28594e-75
-1.66958e-74
4.60073e-75
8.48511e-74
-1.96772e-73
-8.61559e-74
1.27378e-72
-1.98254e-72
-3.34072e-72
1.73648e-71
-1.36343e-71
-7.16591e-71
2.05153e-70
3.21624e-71
-1.19198e-69
1.88266e-69
3.36843e-69
-1.60136e-68
7.93239e-69
7.49457e-68
-1.63342e-67
-1.52463e-67
1.12721e-66
-8.8661e-67
-4.79919e-66
1.18744e-65
8.81385e-66
-7.67096e-65
5.94918e-65
3.31598e-64
-7.65645e-64
-7.69054e-64
5.09511e-63
-2.35229e-63
-2.42579e-62
4.20672e-62
7.87582e-62
-3.15084e-61
-5.71487e-62
1.72885e-60
-1.58587e-60
-7.40956e-60
1.6048e-59
2.25457e-59
-1.06335e-58
-1.50388e-59
5.68502e-58
-4.42507e-58
-2.55785e-57
4.50855e-57
9.43797e-57
-3.09768e-56
-2.41118e-56
1.7775e-55
-8.08586e-57
-9.04468e-55
6.67152e-55
4.16809e-54
-6.07343e-54
-1.74216e-53
4.11191e-53
6.477e-53
-2.42808e-52
-2.00318e-52
1.31985e-51
3.85048e-52
-6.78008e-51
9.28342e-52
3.34392e-50
-1.7048e-50
-1.60116e-49
1.36151e-49
7.51037e-49
-8.77497e-49
-3.47852e-48
5.09443e-48
1.60286e-47
-2.77509e-47
-7.40073e-47
1.44639e-46
3.44631e-46
-7.28833e-46
-1.62703e-45
3.56968e-45
7.81177e-45
-1.70256e-44
-3.816e-44
7.89861e-44
1.89216e-43
-3.54856e-43
-9.47899e-43
1.53008e-42
4.76744e-42
-6.22668e-42
-2.39002e-41
2.31237e-41
1.18516e-40
-7.20868e-41
-5.76598e-40
1.32724e-40
2.72738e-39
4.73883e-40
-1.24046e-38
-7.72405e-39
5.34239e-38
6.18215e-38
-2.12554e-37
-3.97267e-37
7.43946e-37
2.24254e-36
-2.00079e-36
-1.14098e-35
1.51207e-36
5.2362e-35
3.01379e-35
-2.12427e-34
-2.94275e-34
7.17928e-34
1.88041e-33
-1.63573e-33
-9.69184e-33
-1.20413e-33
4.15331e-32
4.32602e-32
-1.41062e-31
-3.2419e-31
2.94647e-31
1.703e-30
4.79086e-31
-6.84327e-30
-9.42344e-30
1.90102e-29
6.16472e-29
-1.05627e-29
-2.74661e-28
-2.82094e-28
8.20001e-28
2.20365e-27
-6.76494e-28
-1.01116e-26
-1.03559e-26
2.84355e-26
8.14361e-26
-6.17973e-27
-3.45286e-25
-4.63831e-25
7.51179e-25
2.99863e-24
1.38356e-24
-1.01253e-23
-2.11027e-23
8.22724e-24
9.80832e-23
1.23507e-22
-1.9325e-22
-8.10661e-22
-5.78675e-22
2.24304e-21
6.12037e-21
1.74052e-21
-2.10102e-20
-4.40923e-20
2.8444e-21
1.76756e-19
3.14219e-19
-9.80245e-20
-1.39484e-18
-2.28221e-18
9.34771e-19
1.05191e-17
1.71875e-17
-5.53868e-18
-7.59448e-17
-1.33863e-16
8.62663e-18
5.16894e-16
1.05415e-15
3.25912e-16
-3.18528e-15
-8.09516e-15
-6.06215e-15
1.60864e-14
5.78585e-14
7.21624e-14
-4.41108e-14
-3.59671e-13
-6.75342e-13
-3.0031e-13
1.68043e-12
5.05429e-12
6.2367e-12
-2.54425e-12
-2.78806e-11
-5.9852e-11
-5.264e-11
7.32787e-11
3.64536e-10
6.79205e-10
5.11674e-10
-9.59241e-10
-4.21224e-09
-7.87737e-09
-6.9179e-09
7.4791e-09
4.27732e-08
9.15211e-08
1.11213e-07
1.08804e-08
-3.26251e-07
-9.44926e-07
-1.6218e-06
-1.61398e-06
4.7712e-07
6.39088e-06
1.69916e-05
2.9797e-05
3.54002e-05
1.40054e-05
-6.5086e-05
-0.000236361
-0.000517316
-0.000868095
-0.00112826
-0.000933151
0.000379381
0.00385122
0.0109471
0.0235278
0.0437277
0.0737287
0.115442
0.170141
0.238109
0.318377
0.408623
0.505283
0.603877
0.699511
0.787477
0.86384
0.925915
0.97253
1.00405
1.02217
1.02952
1.02918
1.02419
1.01721
1.01021
1.00442
1.00038
0.998124
0.997306
0.997454
0.998099
0.99887
0.999532
0.999982
1.00021
1.00027
1.00023
1.00015
1.00007
1.00001
0.999981
0.999972
0.999976
0.999985
0.999994
1
1
1
1
1
1
1
1
1
1
1
1
1
1
1
1
1
1
1
1
1
1
1
1
1
1
1
1
1
1
1
1
1
1
1
1
1
1
1
1
1
1
1
1
0.999994
0.999983
0.99997
0.999965
0.999986
1.00007
1.00024
1.00052
1.00087
1.00113
1.00093
0.999621
0.996149
0.989053
0.976472
0.956272
0.926271
0.884558
0.829859
0.761891
0.681623
0.591377
0.494717
0.396123
0.300489
0.212523
0.13616
0.074085
0.0274704
-0.00405071
-0.0221718
-0.029521
-0.0291775
-0.0241946
-0.017211
-0.0102063
-0.00441532
-0.000384464
0.00187598
0.0026944
0.00254595
0.00190087
0.00113013
0.000467832
1.79027e-05
-0.000212974
-0.000273882
-0.000232714
-0.000150746
-7.01604e-05
-1.20958e-05
1.89002e-05
2.80543e-05
2.41121e-05
1.511e-05
6.41126e-06
4.8859e-07
-2.3306e-06
-2.85006e-06
-2.16316e-06
-1.15602e-06
-3.35356e-07
1.31326e-07
2.86638e-07
2.5416e-07
1.52109e-07
5.59276e-08
-3.88166e-09
-2.71152e-08
-2.67522e-08
-1.67766e-08
-6.53394e-09
8.65685e-12
2.601e-09
2.62824e-09
1.6254e-09
6.03593e-10
-2.72875e-11
-2.58022e-10
-2.42736e-10
-1.39253e-10
-4.39352e-11
9.54237e-12
2.53989e-11
2.06811e-11
1.0307e-11
2.20032e-12
-1.65558e-12
-2.32923e-12
-1.56695e-12
-6.18771e-13
-1.58185e-14
2.01705e-13
1.8816e-13
9.99028e-14
2.49923e-14
-1.1775e-14
-1.89063e-14
-1.27088e-14
-4.8209e-15
2.17392e-17
1.61407e-15
1.38745e-15
6.64823e-16
1.17446e-16
-1.15032e-16
-1.35194e-16
-7.71584e-17
-2.1722e-17
6.27065e-18
1.20406e-17
7.99238e-18
2.82996e-18
-1.55686e-19
-9.97912e-19
-7.61918e-19
-3.1137e-19
-1.94721e-20
7.82527e-20
6.81668e-20
3.07121e-20
4.01652e-21
-5.91007e-21
-5.80349e-21
-2.79328e-21
-4.78709e-22
4.38532e-22
4.74944e-22
2.37925e-22
4.59518e-23
-3.2619e-23
-3.76228e-23
-1.91483e-23
-3.83032e-24
2.46977e-24
2.89618e-24
1.46269e-24
2.83567e-25
-1.91239e-25
-2.16876e-25
-1.06175e-25
-1.85967e-26
1.50275e-26
1.57729e-26
7.31083e-27
1.04749e-27
-1.17968e-27
-1.10991e-27
-4.75199e-28
-4.56514e-29
9.0921e-29
7.5154e-29
2.89021e-29
8.21589e-31
-6.77766e-30
-4.86305e-30
-1.62023e-30
1.15313e-31
4.83022e-31
2.98185e-31
8.14122e-32
-1.88529e-32
-3.2614e-32
-1.71394e-32
-3.44541e-33
1.87617e-33
2.07013e-33
9.0957e-34
9.9841e-35
-1.51878e-34
-1.22525e-34
-4.34726e-35
8.05017e-37
1.07267e-35
6.69307e-36
1.78004e-36
-4.18997e-37
-6.77483e-37
-3.32252e-37
-5.41712e-38
4.18527e-38
3.85463e-38
1.45794e-38
3.68069e-40
-3.05146e-39
-1.96888e-39
-5.31903e-40
1.11229e-40
1.85945e-40
8.8905e-41
1.31792e-41
-1.14894e-41
-9.81994e-42
-3.41654e-42
7.63159e-44
7.83271e-43
4.5094e-43
1.0035e-43
-3.67927e-44
-4.3099e-44
-1.7596e-44
-1.23211e-45
2.98217e-45
1.99946e-45
5.40505e-46
-1.02759e-46
-1.7161e-46
-7.77256e-47
-9.33015e-48
1.06117e-47
7.97448e-48
2.38037e-48
-2.68099e-49
-6.33935e-49
-3.03945e-49
-4.36629e-50
3.64072e-50
2.91051e-50
8.99922e-51
-7.65773e-52
-2.20456e-51
-1.0691e-51
-1.56922e-52
1.2295e-52
9.80772e-53
2.97493e-53
-2.77989e-54
-7.2596e-54
-3.40303e-54
-4.47662e-55
4.09499e-55
3.05656e-55
8.61471e-56
-1.18169e-56
-2.2572e-56
-9.78521e-57
-9.56918e-58
1.32373e-57
8.76942e-58
2.15516e-58
-4.93385e-59
-6.56241e-59
-2.51758e-59
-1.06509e-60
4.05241e-60
2.29286e-60
4.47551e-61
-1.84987e-61
-1.75901e-61
-5.6818e-62
2.54567e-63
1.14686e-62
5.37662e-63
6.86082e-64
-6.06664e-64
-4.27384e-64
-1.08102e-64
2.08647e-65
2.93895e-65
1.10303e-65
3.74537e-67
-1.72962e-66
-9.22004e-67
-1.5716e-67
8.12155e-68
6.69188e-68
1.89344e-68
-2.151e-69
-4.27123e-69
-1.71518e-69
-1.10822e-70
2.3554e-70
1.32497e-70
2.44019e-71
-1.04123e-71
-9.06452e-72
-2.60864e-72
2.56619e-73
5.534e-73
2.20725e-73
1.37097e-74
-2.96858e-74
-1.62484e-74
-2.81182e-75
1.31966e-75
1.07393e-75
2.88756e-76
-3.83871e-77
-6.4258e-77
-2.3675e-77
-6.95282e-79
3.45148e-78
1.7014e-78
2.35443e-79
-1.60872e-79
-1.1075e-79
-2.52946e-80
5.83457e-81
6.60686e-81
2.08723e-81
-8.26394e-83
-3.60974e-82
-1.49851e-82
-1.16869e-83
1.78085e-83
9.76235e-84
1.63535e-84
-7.74286e-85
-4.70486e-85
)
;

boundaryField
{
    sides
    {
        type            zeroGradient;
    }
    empty
    {
        type            empty;
    }
}


// ************************************************************************* //
