/*--------------------------------*- C++ -*----------------------------------*\
| =========                 |                                                 |
| \\      /  F ield         | OpenFOAM: The Open Source CFD Toolbox           |
|  \\    /   O peration     | Version:  2312                                  |
|   \\  /    A nd           | Website:  www.openfoam.com                      |
|    \\/     M anipulation  |                                                 |
\*---------------------------------------------------------------------------*/
FoamFile
{
    version     2.0;
    format      ascii;
    arch        "LSB;label=32;scalar=64";
    class       volScalarField;
    location    "2.8";
    object      T;
}
// * * * * * * * * * * * * * * * * * * * * * * * * * * * * * * * * * * * * * //

dimensions      [0 0 0 1 0 0 0];

internalField   nonuniform List<scalar> 
1000
(
0
0
0
0
0
0
0
0
0
0
0
0
0
0
0
0
0
0
0
0
0
0
0
0
0
0
0
0
0
0
0
0
0
0
0
0
0
0
0
0
0
0
0
0
0
0
0
0
0
0
0
0
0
0
0
0
0
0
0
0
0
0
0
0
0
0
0
0
0
0
0
0
0
0
0
0
0
0
0
0
0
0
0
0
0
0
0
0
0
0
0
0
0
0
0
0
0
0
0
0
0
0
0
0
0
0
0
0
0
0
0
0
0
0
0
0
0
0
0
0
0
0
0
0
0
0
0
0
0
0
0
0
0
0
0
0
0
0
0
0
0
0
0
0
0
0
0
0
0
0
0
0
0
0
0
0
0
0
0
0
0
0
0
0
0
0
0
0
0
0
0
0
0
0
0
0
0
0
0
0
0
0
0
0
0
0
0
0
0
0
0
0
0
0
0
0
0
0
0
0
0
0
0
0
0
0
0
0
0
0
0
0
0
0
0
0
0
0
0
0
0
0
0
0
0
0
0
0
0
0
0
0
0
0
0
0
0
0
0
0
0
0
0
0
0
0
0
0
0
0
0
0
0
0
0
0
0
0
0
0
0
0
0
0
0
0
0
0
0
0
0
0
0
0
0
0
0
0
0
0
0
0
0
0
0
0
0
0
0
0
0
0
0
0
0
0
0
0
0
0
0
0
0
0
0
0
0
0
0
0
0
0
0
0
0
0
0
0
0
0
0
0
0
0
0
0
0
0
0
0
0
0
0
0
0
0
0
0
0
0
0
0
0
0
0
0
0
0
0
0
0
0
0
0
0
0
0
0
0
0
0
0
0
0
0
0
0
0
0
0
0
0
0
0
0
0
0
0
0
0
0
0
0
0
0
0
0
0
0
0
0
0
0
0
0
0
0
0
0
0
0
0
0
0
5.50611e-111
-3.69623e-95
2.22099e-87
-1.29164e-83
-1.07028e-81
-2.44691e-80
1.11949e-78
1.14829e-76
5.23369e-75
1.66898e-73
4.18756e-72
8.73534e-71
1.56539e-69
2.46344e-68
3.45902e-67
4.38644e-66
5.07163e-65
5.38743e-64
5.29087e-63
4.82862e-62
4.11273e-61
3.28086e-60
2.45844e-59
1.73444e-58
1.15415e-57
7.25243e-57
4.30592e-56
2.41489e-55
1.27757e-54
6.35651e-54
2.9573e-53
1.27261e-52
4.95659e-52
1.6614e-51
4.07833e-51
5.48884e-52
-8.18308e-50
-7.32622e-49
-4.73123e-48
-2.6345e-47
-1.33718e-46
-6.34276e-46
-2.84987e-45
-1.22288e-44
-5.03836e-44
-2.00058e-43
-7.67644e-43
-2.8522e-42
-1.02779e-41
-3.59662e-41
-1.22357e-40
-4.05081e-40
-1.30631e-39
-4.10736e-39
-1.26047e-38
-3.77941e-38
-1.10855e-37
-3.18472e-37
-8.97328e-37
-2.48302e-36
-6.75638e-36
-1.80986e-35
-4.777e-35
-1.24299e-34
-3.18876e-34
-8.06235e-34
-2.0074e-33
-4.91609e-33
-1.18244e-32
-2.7886e-32
-6.43724e-32
-1.4521e-31
-3.19615e-31
-6.85623e-31
-1.43247e-30
-2.91539e-30
-5.78797e-30
-1.12462e-29
-2.15135e-29
-4.08923e-29
-7.81788e-29
-1.52294e-28
-3.05133e-28
-6.29509e-28
-1.32611e-27
-2.81024e-27
-5.89093e-27
-1.20243e-26
-2.35605e-26
-4.36818e-26
-7.52437e-26
-1.16812e-25
-1.527e-25
-1.3189e-25
7.08045e-26
7.16536e-25
2.28253e-24
5.52738e-24
1.1446e-23
2.09037e-23
3.35588e-23
4.5461e-23
4.45425e-23
3.35985e-24
-1.30592e-22
-4.44035e-22
-1.05808e-21
-2.10141e-21
-3.62429e-21
-5.40494e-21
-6.58805e-21
-5.10567e-21
3.10724e-21
2.49311e-20
7.04314e-20
1.51788e-19
2.79092e-19
4.50583e-19
6.34456e-19
7.40118e-19
5.79643e-19
-1.7335e-19
-2.00745e-18
-5.54049e-18
-1.13644e-17
-1.96776e-17
-2.96109e-17
-3.82164e-17
-3.92858e-17
-2.16375e-17
3.39319e-17
1.5758e-16
3.87711e-16
7.4716e-16
1.15229e-15
1.3846e-15
-1.1878e-16
-5.32571e-15
-1.00288e-14
-4.12993e-15
1.87492e-14
3.47613e-14
4.77563e-15
-6.85899e-14
-9.05627e-14
3.15396e-14
2.23366e-13
1.91263e-13
-2.22485e-13
-6.36367e-13
-3.10134e-13
9.0432e-13
1.65499e-12
2.61497e-13
-2.9793e-12
-4.05709e-12
6.37658e-13
8.96655e-12
9.55092e-12
-4.31615e-12
-2.47154e-11
-2.34104e-11
1.5714e-11
6.66025e-11
5.84634e-11
-4.52718e-11
-1.75756e-10
-1.55255e-10
1.10534e-10
4.58621e-10
4.34515e-10
-2.09313e-10
-1.16262e-09
-1.25914e-09
1.96377e-10
2.76301e-09
3.70121e-09
6.80337e-10
-6.02504e-09
-1.04041e-08
-5.25017e-09
1.09438e-08
2.70748e-08
2.31188e-08
-1.15736e-08
-6.3017e-08
-7.92909e-08
-2.14179e-08
1.10981e-07
2.25555e-07
1.84377e-07
-8.63968e-08
-4.93844e-07
-6.89836e-07
-3.53147e-07
6.09276e-07
1.769e-06
2.00272e-06
6.45326e-07
-2.45189e-06
-5.76148e-06
-6.09563e-06
-1.76627e-06
7.63639e-06
1.80354e-05
2.01344e-05
8.93373e-06
-1.82467e-05
-5.24179e-05
-7.0117e-05
-5.08735e-05
1.79832e-05
0.000127472
0.000229927
0.000241614
0.000124612
-0.00015765
-0.000555898
-0.000910582
-0.000953159
-0.000567857
0.000391942
0.00185232
0.00343809
0.00438767
0.00401916
0.00182372
-0.00265244
-0.00925924
-0.0170015
-0.0238925
-0.0266497
-0.023419
-0.0117719
0.0110336
0.0468822
0.0965257
0.159428
0.233788
0.316743
0.404718
0.493851
0.580427
0.661244
0.733876
0.796793
0.849364
0.891746
0.92471
0.949433
0.967294
0.979705
0.987978
0.993253
0.996452
0.998285
0.999265
0.999743
0.999945
0.999999
1
1
1
1
1
1
1
1
1
1
1
1
1
1
1
1
1
1
1
1
1
1
1
1
1
1
1
1
1
1
1
1
1
1
1
0.999999
0.999998
0.999998
0.999999
1
1.00001
1.00001
1
0.999992
0.999982
0.99998
0.999991
1.00002
1.00005
1.00007
1.00005
0.999982
0.999873
0.99977
0.999759
0.999876
1.00016
1.00056
1.00091
1.00095
1.00057
0.999607
0.998147
0.996562
0.995613
0.995984
0.998183
1.00266
1.00927
1.01701
1.02389
1.02664
1.02339
1.01173
0.988908
0.953042
0.903382
0.840467
0.766099
0.68314
0.595167
0.506041
0.419475
0.338669
0.266051
0.203148
0.15059
0.10822
0.0752647
0.0505494
0.0326942
0.0202881
0.0120173
0.00674458
0.00354629
0.00171424
0.000735065
0.000257115
5.47697e-05
7.62457e-07
1.61513e-16
1.5955e-16
1.56057e-16
1.50296e-16
1.42819e-16
1.34077e-16
1.24476e-16
1.14374e-16
1.04083e-16
9.3859e-17
8.39136e-17
7.44094e-17
6.54671e-17
5.71688e-17
4.95637e-17
4.26732e-17
3.64956e-17
3.10114e-17
2.61873e-17
2.19806e-17
1.83423e-17
1.522e-17
1.25603e-17
1.03107e-17
8.42087e-18
6.84342e-18
5.53487e-18
4.45583e-18
3.57108e-18
2.84961e-18
2.26435e-18
1.79197e-18
1.41255e-18
1.10921e-18
8.67771e-19
6.76435e-19
5.25432e-19
4.06738e-19
3.13802e-19
2.41307e-19
1.84964e-19
1.41329e-19
1.07653e-19
8.17502e-20
6.18924e-20
4.67181e-20
3.51597e-20
2.63832e-20
1.97396e-20
1.4726e-20
1.0954e-20
8.12467e-21
6.00877e-21
4.43112e-21
3.25831e-21
2.38902e-21
1.74662e-21
1.27329e-21
9.25553e-22
6.70848e-22
4.84834e-22
3.49386e-22
2.51051e-22
1.79871e-22
1.28499e-22
9.15331e-23
6.50122e-23
4.60415e-23
3.25117e-23
2.28911e-23
1.60705e-23
1.12494e-23
7.85167e-24
5.46425e-24
3.79171e-24
2.62347e-24
1.80989e-24
1.245e-24
8.53928e-25
5.84002e-25
3.98243e-25
2.70784e-25
1.83588e-25
1.2411e-25
8.36606e-26
5.62319e-26
3.76874e-26
2.51863e-26
1.67837e-26
1.11524e-26
7.38944e-27
4.88223e-27
3.21655e-27
2.11316e-27
1.38435e-27
9.0435e-28
5.8912e-28
3.82695e-28
2.47905e-28
1.60142e-28
1.03161e-28
6.62706e-29
4.24544e-29
2.71223e-29
1.72795e-29
1.09786e-29
6.95618e-30
4.39551e-30
2.76991e-30
1.74077e-30
1.09105e-30
6.81982e-31
4.25142e-31
2.64319e-31
1.63893e-31
1.01353e-31
6.25109e-32
3.84524e-32
2.35908e-32
1.4435e-32
8.80945e-33
5.3622e-33
3.25538e-33
1.97119e-33
1.19049e-33
7.17134e-34
4.30875e-34
2.58217e-34
1.54348e-34
9.20247e-35
5.47267e-35
3.24629e-35
1.92076e-35
1.13359e-35
6.67337e-36
3.91867e-36
2.29531e-36
1.34108e-36
7.81602e-37
4.54394e-37
2.63512e-37
1.52438e-37
8.7965e-38
5.06357e-38
2.90761e-38
1.66552e-38
9.51707e-39
5.42495e-39
3.08484e-39
1.7499e-39
9.90251e-40
5.59021e-40
3.14822e-40
1.76872e-40
9.91316e-41
5.54278e-41
3.09178e-41
1.72051e-41
9.55158e-42
5.29013e-42
2.92303e-42
1.61131e-42
8.86142e-43
4.86196e-43
2.66137e-43
1.45341e-43
7.91884e-44
4.30456e-44
2.33448e-44
1.26314e-44
6.81888e-45
3.67264e-45
1.97355e-45
1.0581e-45
5.66003e-46
3.0208e-46
1.60857e-46
8.54629e-47
4.53039e-47
2.39616e-47
1.26451e-47
6.65819e-48
3.49801e-48
1.83365e-48
9.59069e-49
5.00517e-49
2.60632e-49
1.35419e-49
7.02063e-50
3.63178e-50
1.87461e-50
9.65508e-51
4.96197e-51
2.54453e-51
1.30203e-51
6.64807e-52
3.38714e-52
1.72201e-52
8.73589e-53
4.4223e-53
2.23389e-53
1.12603e-53
5.66391e-54
2.8429e-54
1.42393e-54
7.11704e-55
3.54974e-55
1.76678e-55
8.77521e-56
4.34937e-56
2.15125e-56
1.06182e-56
5.23013e-57
2.57084e-57
1.26108e-57
6.17326e-58
3.01576e-58
1.47024e-58
7.15307e-59
3.47306e-59
1.68286e-59
8.13776e-60
3.92719e-60
1.8914e-60
9.09096e-61
4.36078e-61
2.0876e-61
9.97389e-62
4.75571e-62
2.26309e-62
1.0748e-62
5.09441e-63
2.40992e-63
1.13777e-63
5.36111e-64
2.52118e-64
)
;

boundaryField
{
    sides
    {
        type            zeroGradient;
    }
    empty
    {
        type            empty;
    }
}


// ************************************************************************* //
