/*--------------------------------*- C++ -*----------------------------------*\
| =========                 |                                                 |
| \\      /  F ield         | OpenFOAM: The Open Source CFD Toolbox           |
|  \\    /   O peration     | Version:  2312                                  |
|   \\  /    A nd           | Website:  www.openfoam.com                      |
|    \\/     M anipulation  |                                                 |
\*---------------------------------------------------------------------------*/
FoamFile
{
    version     2.0;
    format      ascii;
    arch        "LSB;label=32;scalar=64";
    class       volScalarField;
    location    "0.6";
    object      T;
}
// * * * * * * * * * * * * * * * * * * * * * * * * * * * * * * * * * * * * * //

dimensions      [0 0 0 1 0 0 0];

internalField   nonuniform List<scalar> 
1000
(
4.57644e-36
4.86304e-36
5.68193e-36
7.12087e-36
9.33383e-36
1.25571e-35
1.7134e-35
2.35506e-35
3.24861e-35
4.48833e-35
6.20455e-35
8.57709e-35
1.18536e-34
1.6375e-34
2.26098e-34
3.12018e-34
4.30351e-34
5.93225e-34
8.17275e-34
1.1253e-33
1.54851e-33
2.12967e-33
2.92722e-33
4.02113e-33
5.52062e-33
7.57486e-33
1.03874e-32
1.4236e-32
1.9499e-32
2.66922e-32
3.65174e-32
4.993e-32
6.82288e-32
9.3179e-32
1.27178e-31
1.7348e-31
2.365e-31
3.22222e-31
4.38755e-31
5.97078e-31
8.12049e-31
1.10376e-30
1.49937e-30
2.03556e-30
2.76185e-30
3.74504e-30
5.07519e-30
6.87366e-30
9.30386e-30
1.25857e-29
1.70149e-29
2.29891e-29
3.10421e-29
4.18907e-29
5.64965e-29
7.61488e-29
1.02575e-28
1.38088e-28
1.85783e-28
2.498e-28
3.35671e-28
4.50785e-28
6.05008e-28
8.11497e-28
1.08779e-27
1.45727e-27
1.95104e-27
2.61051e-27
3.49075e-27
4.66491e-27
6.23018e-27
8.31552e-27
1.1092e-26
1.47863e-26
1.96989e-26
2.62274e-26
3.48977e-26
4.64054e-26
6.16695e-26
8.19032e-26
1.08708e-25
1.44194e-25
1.91145e-25
2.53225e-25
3.35257e-25
4.43584e-25
5.86544e-25
7.7509e-25
1.0236e-24
1.35093e-24
1.78181e-24
2.34863e-24
3.0938e-24
4.07282e-24
5.35824e-24
7.04487e-24
9.25651e-24
1.21547e-23
1.59502e-23
2.09174e-23
2.7414e-23
3.59053e-23
4.69966e-23
6.14746e-23
8.0361e-23
1.04982e-22
1.37059e-22
1.7882e-22
2.33156e-22
3.03806e-22
3.95607e-22
5.14814e-22
6.69508e-22
8.70118e-22
1.1301e-21
1.46682e-21
1.90261e-21
2.46627e-21
3.19483e-21
4.13591e-21
5.35069e-21
6.91773e-21
8.93784e-21
1.15403e-20
1.48906e-20
1.92011e-20
2.47429e-20
3.18632e-20
4.10054e-20
5.27358e-20
6.7777e-20
8.70505e-20
1.11731e-19
1.43312e-19
1.83699e-19
2.3531e-19
3.01221e-19
3.85336e-19
4.92611e-19
6.29329e-19
8.03453e-19
1.02507e-18
1.30693e-18
1.66518e-18
2.1202e-18
2.69775e-18
3.4303e-18
4.35884e-18
5.53497e-18
7.02371e-18
8.90684e-18
1.12872e-17
1.4294e-17
1.80896e-17
2.28774e-17
2.89127e-17
3.65154e-17
4.60857e-17
5.81247e-17
7.32585e-17
9.22695e-17
1.16134e-16
1.46072e-16
1.836e-16
2.30612e-16
2.89463e-16
3.63081e-16
4.55109e-16
5.7007e-16
7.13577e-16
8.92593e-16
1.11575e-15
1.39373e-15
1.73975e-15
2.17018e-15
2.70523e-15
3.36984e-15
4.19481e-15
5.21811e-15
6.48651e-15
8.05761e-15
1.00022e-14
1.24075e-14
1.53805e-14
1.90523e-14
2.35843e-14
2.91738e-14
3.60627e-14
4.45469e-14
5.49884e-14
6.78296e-14
8.36104e-14
1.0299e-13
1.26772e-13
1.55935e-13
1.91671e-13
2.35431e-13
2.88975e-13
3.54446e-13
4.34441e-13
5.32112e-13
6.51277e-13
7.96562e-13
9.73561e-13
1.18904e-12
1.45118e-12
1.76984e-12
2.15693e-12
2.62681e-12
3.19675e-12
3.88756e-12
4.72427e-12
5.73693e-12
6.96165e-12
8.44174e-12
1.02291e-11
1.23861e-11
1.4987e-11
1.8121e-11
2.18945e-11
2.64346e-11
3.18932e-11
3.8451e-11
4.63237e-11
5.57678e-11
6.70885e-11
8.06486e-11
9.68791e-11
1.16291e-10
1.39491e-10
1.67198e-10
2.00262e-10
2.39689e-10
2.8667e-10
3.42608e-10
4.09161e-10
4.88286e-10
5.82284e-10
6.9387e-10
8.26232e-10
9.83121e-10
1.16894e-09
1.38886e-09
1.64895e-09
1.95629e-09
2.31922e-09
2.74744e-09
3.25233e-09
3.84716e-09
4.54742e-09
5.37117e-09
6.33945e-09
7.47675e-09
8.81154e-09
1.03769e-08
1.22114e-08
1.43595e-08
1.68729e-08
1.98115e-08
2.32446e-08
2.72523e-08
3.19273e-08
3.73764e-08
4.37229e-08
5.11089e-08
5.96981e-08
6.96788e-08
8.12673e-08
9.47124e-08
1.10299e-07
1.28356e-07
1.49256e-07
1.73429e-07
2.01367e-07
2.3363e-07
2.70859e-07
3.13785e-07
3.63242e-07
4.20178e-07
4.85673e-07
5.60956e-07
6.4742e-07
7.46651e-07
8.60444e-07
9.90832e-07
1.14012e-06
1.31091e-06
1.50616e-06
1.72918e-06
1.98372e-06
2.27402e-06
2.60484e-06
2.98152e-06
3.41011e-06
3.89736e-06
4.45087e-06
5.07914e-06
5.79172e-06
6.59928e-06
7.51376e-06
8.54848e-06
9.71834e-06
1.10399e-05
1.25318e-05
1.42144e-05
1.61108e-05
1.82463e-05
2.06493e-05
2.3351e-05
2.63863e-05
2.97934e-05
3.3615e-05
3.78981e-05
4.26945e-05
4.80614e-05
5.4062e-05
6.07658e-05
6.8249e-05
7.65956e-05
8.58978e-05
9.62567e-05
0.000107783
0.000120598
0.000134834
0.000150637
0.000168164
0.000187589
0.000209098
0.000232897
0.000259209
0.000288274
0.000320355
0.000355738
0.000394729
0.000437662
0.000484897
0.000536824
0.000593862
0.000656464
0.000725116
0.000800342
0.000882705
0.00097281
0.0010713
0.00117888
0.00129627
0.00142429
0.00156376
0.00171561
0.00188077
0.00206029
0.00225525
0.0024668
0.00269617
0.00294465
0.00321362
0.00350453
0.00381891
0.00415838
0.00452464
0.00491948
0.00534478
0.00580252
0.00629476
0.00682367
0.00739153
0.00800068
0.00865361
0.00935289
0.0101012
0.0109013
0.011756
0.0126684
0.0136416
0.0146787
0.015783
0.016958
0.018207
0.0195337
0.0209418
0.0224349
0.024017
0.025692
0.0274637
0.0293364
0.031314
0.0334008
0.0356009
0.0379186
0.0403581
0.0429237
0.0456198
0.0484505
0.0514202
0.054533
0.0577932
0.0612049
0.0647722
0.0684991
0.0723895
0.0764471
0.0806757
0.0850788
0.0896597
0.0944217
0.0993678
0.104501
0.109824
0.115338
0.121047
0.126952
0.133054
0.139355
0.145857
0.152559
0.159462
0.166566
0.173872
0.181377
0.189082
0.196985
0.205084
0.213378
0.221863
0.230536
0.239395
0.248435
0.257654
0.267045
0.276604
0.286326
0.296205
0.306235
0.31641
0.326723
0.337167
0.347733
0.358415
0.369205
0.380093
0.391071
0.40213
0.41326
0.424453
0.435698
0.446986
0.458306
0.469648
0.481002
0.492357
0.503702
0.515027
0.526321
0.537574
0.548773
0.559909
0.570971
0.581948
0.592829
0.603604
0.614263
0.624794
0.635188
0.645435
0.655525
0.665448
0.675194
0.684755
0.694122
0.703285
0.712236
0.720966
0.729469
0.737735
0.745758
0.75353
0.761044
0.768294
0.775274
0.781976
0.788396
0.794529
0.800368
0.805908
0.811147
0.816078
0.820699
0.825005
0.828992
0.832659
0.836001
0.839016
0.841702
0.844057
0.846079
0.847766
0.849118
0.850132
0.850809
0.851147
0.851147
0.850809
0.850132
0.849118
0.847766
0.846079
0.844057
0.841702
0.839016
0.836001
0.832659
0.828992
0.825005
0.820699
0.816078
0.811147
0.805908
0.800368
0.794529
0.788396
0.781976
0.775274
0.768294
0.761044
0.75353
0.745758
0.737735
0.729469
0.720966
0.712236
0.703285
0.694122
0.684755
0.675194
0.665448
0.655525
0.645435
0.635188
0.624794
0.614263
0.603604
0.592829
0.581948
0.570971
0.559909
0.548773
0.537574
0.526321
0.515027
0.503702
0.492357
0.481002
0.469648
0.458306
0.446986
0.435698
0.424453
0.41326
0.40213
0.391071
0.380093
0.369205
0.358415
0.347733
0.337167
0.326723
0.31641
0.306235
0.296205
0.286326
0.276604
0.267045
0.257654
0.248435
0.239395
0.230536
0.221863
0.213378
0.205084
0.196985
0.189082
0.181377
0.173872
0.166566
0.159462
0.152559
0.145857
0.139355
0.133054
0.126952
0.121047
0.115338
0.109824
0.104501
0.0993678
0.0944217
0.0896597
0.0850788
0.0806757
0.0764471
0.0723895
0.0684991
0.0647722
0.0612049
0.0577932
0.054533
0.0514202
0.0484505
0.0456198
0.0429237
0.0403581
0.0379186
0.0356009
0.0334008
0.031314
0.0293364
0.0274637
0.025692
0.024017
0.0224349
0.0209418
0.0195337
0.018207
0.016958
0.015783
0.0146787
0.0136416
0.0126684
0.011756
0.0109013
0.0101012
0.00935289
0.00865361
0.00800068
0.00739153
0.00682367
0.00629476
0.00580252
0.00534478
0.00491948
0.00452464
0.00415838
0.00381891
0.00350453
0.00321362
0.00294465
0.00269617
0.0024668
0.00225525
0.00206029
0.00188077
0.00171561
0.00156376
0.00142429
0.00129627
0.00117888
0.0010713
0.00097281
0.000882705
0.000800342
0.000725116
0.000656464
0.000593862
0.000536824
0.000484897
0.000437662
0.000394729
0.000355738
0.000320355
0.000288274
0.000259209
0.000232897
0.000209098
0.000187589
0.000168164
0.000150637
0.000134834
0.000120598
0.000107783
9.62567e-05
8.58978e-05
7.65956e-05
6.8249e-05
6.07658e-05
5.4062e-05
4.80614e-05
4.26945e-05
3.78981e-05
3.3615e-05
2.97934e-05
2.63863e-05
2.3351e-05
2.06493e-05
1.82463e-05
1.61108e-05
1.42144e-05
1.25318e-05
1.10399e-05
9.71834e-06
8.54848e-06
7.51376e-06
6.59928e-06
5.79172e-06
5.07914e-06
4.45087e-06
3.89736e-06
3.41011e-06
2.98152e-06
2.60484e-06
2.27402e-06
1.98372e-06
1.72918e-06
1.50616e-06
1.31091e-06
1.14012e-06
9.90832e-07
8.60444e-07
7.46651e-07
6.4742e-07
5.60956e-07
4.85673e-07
4.20178e-07
3.63242e-07
3.13785e-07
2.70859e-07
2.3363e-07
2.01367e-07
1.73429e-07
1.49256e-07
1.28356e-07
1.10299e-07
9.47124e-08
8.12673e-08
6.96788e-08
5.96981e-08
5.11089e-08
4.37229e-08
3.73764e-08
3.19273e-08
2.72523e-08
2.32446e-08
1.98115e-08
1.68729e-08
1.43595e-08
1.22114e-08
1.03769e-08
8.81154e-09
7.47675e-09
6.33945e-09
5.37117e-09
4.54742e-09
3.84716e-09
3.25233e-09
2.74744e-09
2.31922e-09
1.95629e-09
1.64895e-09
1.38886e-09
1.16894e-09
9.83121e-10
8.26232e-10
6.9387e-10
5.82284e-10
4.88286e-10
4.09161e-10
3.42608e-10
2.8667e-10
2.39689e-10
2.00262e-10
1.67198e-10
1.39491e-10
1.16291e-10
9.68791e-11
8.06486e-11
6.70885e-11
5.57678e-11
4.63237e-11
3.8451e-11
3.18932e-11
2.64346e-11
2.18945e-11
1.8121e-11
1.4987e-11
1.23861e-11
1.02291e-11
8.44174e-12
6.96165e-12
5.73693e-12
4.72427e-12
3.88756e-12
3.19675e-12
2.62681e-12
2.15693e-12
1.76984e-12
1.45118e-12
1.18904e-12
9.73561e-13
7.96562e-13
6.51277e-13
5.32112e-13
4.34441e-13
3.54446e-13
2.88975e-13
2.35431e-13
1.91671e-13
1.55935e-13
1.26772e-13
1.0299e-13
8.36104e-14
6.78296e-14
5.49884e-14
4.45469e-14
3.60627e-14
2.91738e-14
2.35843e-14
1.90523e-14
1.53805e-14
1.24075e-14
1.00022e-14
8.05761e-15
6.48651e-15
5.21811e-15
4.19481e-15
3.36984e-15
2.70523e-15
2.17018e-15
1.73975e-15
1.39373e-15
1.11575e-15
8.92593e-16
7.13577e-16
5.7007e-16
4.55109e-16
3.63081e-16
2.89463e-16
2.30612e-16
1.836e-16
1.46072e-16
1.16134e-16
9.22695e-17
7.32585e-17
5.81247e-17
4.60857e-17
3.65154e-17
2.89127e-17
2.28774e-17
1.80896e-17
1.4294e-17
1.12872e-17
8.90684e-18
7.02371e-18
5.53497e-18
4.35884e-18
3.4303e-18
2.69775e-18
2.1202e-18
1.66518e-18
1.30693e-18
1.02507e-18
8.03453e-19
6.29329e-19
4.92611e-19
3.85336e-19
3.01221e-19
2.3531e-19
1.83699e-19
1.43312e-19
1.11731e-19
8.70505e-20
6.7777e-20
5.27358e-20
4.10054e-20
3.18632e-20
2.47429e-20
1.92011e-20
1.48906e-20
1.15403e-20
8.93784e-21
6.91773e-21
5.35069e-21
4.13591e-21
3.19483e-21
2.46627e-21
1.90261e-21
1.46682e-21
1.1301e-21
8.70118e-22
6.69508e-22
5.14814e-22
3.95607e-22
3.03806e-22
2.33156e-22
1.7882e-22
1.37059e-22
1.04982e-22
8.0361e-23
6.14746e-23
4.69966e-23
3.59053e-23
2.7414e-23
2.09174e-23
1.59502e-23
1.21547e-23
9.25651e-24
7.04487e-24
5.35824e-24
4.07282e-24
3.0938e-24
2.34863e-24
1.78181e-24
1.35093e-24
1.0236e-24
7.7509e-25
5.86544e-25
4.43584e-25
3.35257e-25
2.53225e-25
1.91145e-25
1.44194e-25
1.08708e-25
8.19032e-26
6.16695e-26
4.64054e-26
3.48977e-26
2.62274e-26
1.96989e-26
1.47863e-26
1.1092e-26
8.31552e-27
6.23018e-27
4.66491e-27
3.49075e-27
2.61051e-27
1.95104e-27
1.45727e-27
1.08779e-27
8.11497e-28
6.05008e-28
4.50785e-28
3.35671e-28
2.498e-28
1.85783e-28
1.38088e-28
1.02575e-28
7.61488e-29
5.64965e-29
4.18907e-29
3.10421e-29
2.29891e-29
1.70149e-29
1.25857e-29
9.30386e-30
6.87366e-30
5.07519e-30
3.74504e-30
2.76185e-30
2.03556e-30
1.49937e-30
1.10376e-30
8.12049e-31
5.97078e-31
4.38755e-31
3.22222e-31
2.365e-31
1.7348e-31
1.27178e-31
9.3179e-32
6.82288e-32
4.993e-32
3.65174e-32
2.66922e-32
1.9499e-32
1.4236e-32
1.03874e-32
7.57486e-33
5.52062e-33
4.02113e-33
2.92722e-33
2.12967e-33
1.54851e-33
1.1253e-33
8.17275e-34
5.93225e-34
4.30351e-34
3.12018e-34
2.26098e-34
1.6375e-34
1.18536e-34
8.57709e-35
6.20455e-35
4.48833e-35
3.24861e-35
2.35506e-35
1.7134e-35
1.25571e-35
9.33383e-36
7.12087e-36
5.68193e-36
4.86304e-36
4.57644e-36
)
;

boundaryField
{
    sides
    {
        type            zeroGradient;
    }
    empty
    {
        type            empty;
    }
}


// ************************************************************************* //
