/*--------------------------------*- C++ -*----------------------------------*\
| =========                 |                                                 |
| \\      /  F ield         | OpenFOAM: The Open Source CFD Toolbox           |
|  \\    /   O peration     | Version:  2312                                  |
|   \\  /    A nd           | Website:  www.openfoam.com                      |
|    \\/     M anipulation  |                                                 |
\*---------------------------------------------------------------------------*/
FoamFile
{
    version     2.0;
    format      ascii;
    arch        "LSB;label=32;scalar=64";
    class       volScalarField;
    location    "0.2";
    object      T;
}
// * * * * * * * * * * * * * * * * * * * * * * * * * * * * * * * * * * * * * //

dimensions      [0 0 0 1 0 0 0];

internalField   nonuniform List<scalar> 
1000
(
0
0
0
0
0
0
0
0
0
0
0
0
0
0
0
0
0
0
0
0
0
0
0
0
0
0
0
0
0
0
0
0
0
0
0
0
0
0
0
0
0
0
0
0
0
0
0
0
0
0
0
0
0
0
0
0
0
0
0
0
0
0
0
0
0
0
0
0
0
0
0
0
0
0
0
0
0
0
0
0
0
0
0
0
0
0
0
0
0
0
0
0
0
0
0
0
0
0
0
0
0
0
0
0
0
0
0
0
0
0
0
0
0
0
0
0
0
0
0
0
0
0
0
0
0
0
0
0
0
0
0
0
0
0
0
0
0
0
0
0
0
0
0
0
0
0
0
0
0
0
0
0
0
0
0
0
0
0
0
0
0
0
0
0
0
0
0
0
0
0
0
0
0
0
0
0
0
0
0
0
0
0
0
0
0
0
0
0
0
0
0
0
0
0
0
0
0
0
0
0
0
0
0
0
0
0
0
0
0
0
0
0
0
0
0
0
0
0
0
0
0
0
0
0
0
0
0
0
0
0
0
0
0
0
0
0
0
0
0
0
0
0
0
0
0
0
0
0
0
0
0
0
0
0
0
0
0
0
0
0
0
0
0
0
0
0
0
0
0
0
0
0
0
0
0
0
0
0
0
0
0
0
0
0
0
0
0
0
0
0
0
0
0
0
0
0
0
0
0
0
0
0
0
0
0
0
0
0
0
0
0
0
0
0
0
0
0
0
0
0
0
0
0
0
0
0
0
0
0
0
0
0
0
0
0
0
0
0
0
0
0
0
0
0
0
0
0
0
0
0
0
0
0
0
0
0
0
0
0
0
0
0
0
0
0
0
0
0
0
0
0
0
0
0
0
0
0
0
0
0
0
0
0
0
0
0
0
0
0
0
0
0
0
0
0
0
0
0
0
0
0
0
0
0
0
0
0
0
0
0
0
0
0
0
0
0
0
0
0
0
0
0
0
0
0
0
0
0
0
0
0
0
0
0
0
0
0
0
0
0
0
0
0
0
0
0
0
0
0
0
1.94495e-06
2.66988e-05
0.000185011
0.000863355
0.0030541
0.00874207
0.0211091
0.0442691
0.0824043
0.13849
0.213084
0.303706
0.405107
0.510337
0.612219
0.704715
0.78381
0.847762
0.896825
0.932648
0.95761
0.974251
0.984889
0.991423
0.995287
0.99749
0.998703
0.999349
0.999683
0.999849
0.99993
0.999969
0.999986
0.999994
0.999998
0.999999
1
1
1
1
1
1
1
1
1
1
1
1
1
1
1
1
1
1
1
1
1
1
1
1
1
1
1
1
1
1
1
1
1
1
1
1
1
1
1
1
1
1
1
1
1
1
1
1
1
1
1
1
1
1
1
1
1
1
1
1
1
1
1
1
0.999998
0.999973
0.999815
0.999137
0.996946
0.991258
0.978891
0.955731
0.917596
0.86151
0.786916
0.696294
0.594893
0.489663
0.387781
0.295285
0.21619
0.152238
0.103175
0.0673522
0.0423903
0.025749
0.0151109
0.0085767
0.00471311
0.00251016
0.00129699
0.000650787
0.000317404
0.000150608
6.95861e-05
3.13321e-05
1.37592e-05
5.89741e-06
2.46891e-06
1.01023e-06
4.04292e-07
1.58343e-07
6.07288e-08
2.28206e-08
8.40693e-09
3.03774e-09
1.07717e-09
3.75017e-10
1.28247e-10
4.3099e-11
1.42394e-11
4.62703e-12
1.47933e-12
4.65529e-13
1.44246e-13
4.40235e-14
1.32385e-14
3.92378e-15
1.14662e-15
3.30455e-16
9.39531e-17
2.63594e-17
7.2997e-18
1.99587e-18
5.38924e-19
1.43747e-19
3.78831e-20
9.86665e-21
2.5402e-21
6.46599e-22
1.62765e-22
4.05257e-23
9.98237e-24
2.43305e-24
5.869e-25
1.40136e-25
3.31274e-26
7.75436e-27
1.79763e-27
4.12781e-28
9.39015e-29
2.11653e-29
4.72759e-30
1.0466e-30
2.29673e-31
4.99674e-32
1.07787e-32
2.30574e-33
4.8918e-34
1.02943e-34
2.14907e-35
4.45122e-36
9.14808e-37
1.86575e-37
3.77659e-38
7.58775e-39
1.51335e-39
2.99655e-40
5.89124e-41
1.1501e-41
2.22971e-42
4.29325e-43
8.2109e-44
1.55991e-44
2.94409e-45
5.52057e-46
1.02857e-46
1.90429e-47
3.50365e-48
6.40664e-49
1.16438e-49
2.10353e-50
3.77766e-51
6.74448e-52
1.19718e-52
2.11291e-53
3.70807e-54
6.47124e-55
1.12313e-55
1.93865e-56
3.32834e-57
5.68382e-58
9.65526e-59
1.63164e-59
2.74315e-60
4.58841e-61
7.63638e-62
1.26459e-62
2.08389e-63
3.41731e-64
5.577e-65
9.05833e-66
1.46436e-66
2.35626e-67
3.77393e-68
6.01703e-69
9.55011e-70
1.50902e-70
2.37387e-71
3.71809e-72
5.79831e-73
9.00366e-74
1.39217e-74
2.14359e-75
3.28688e-76
5.01923e-77
7.63341e-78
1.15624e-78
1.74437e-79
2.62125e-80
3.92352e-81
5.85002e-82
8.68896e-83
1.28565e-83
1.89513e-84
2.78312e-85
4.07208e-86
5.93617e-87
8.6222e-88
1.24786e-88
1.79955e-89
2.58598e-90
3.70309e-91
5.2844e-92
7.51507e-93
1.0651e-93
1.50444e-94
2.11791e-95
2.97165e-96
4.15583e-97
5.79297e-98
8.04894e-99
1.11477e-99
1.53903e-100
2.11808e-101
2.90589e-102
3.97439e-103
5.4191e-104
7.36647e-105
9.98343e-106
1.34896e-106
1.8173e-107
2.44103e-108
3.26927e-109
4.36586e-110
5.81351e-111
7.71912e-112
1.02204e-112
1.34943e-113
1.77673e-114
2.33288e-115
3.05473e-116
3.98908e-117
5.19518e-118
6.74784e-119
8.74129e-120
1.12938e-120
1.45536e-121
1.87057e-122
2.39804e-123
3.06641e-124
3.91112e-125
4.97597e-126
6.31495e-127
7.99437e-128
1.00955e-128
1.27178e-129
1.59824e-130
2.00368e-131
2.50596e-132
3.12672e-133
3.89207e-134
4.83345e-135
5.9886e-136
7.40274e-137
9.12988e-138
1.12344e-138
1.37929e-139
1.68962e-140
2.06517e-141
2.51861e-142
3.0649e-143
3.72155e-144
4.50912e-145
5.45164e-146
6.57711e-147
7.91814e-148
9.51255e-149
1.14042e-149
1.36435e-150
1.62891e-151
1.94077e-152
2.30765e-153
2.73834e-154
3.2429e-155
3.83277e-156
4.52097e-157
5.32226e-158
6.25333e-159
7.33301e-160
8.58254e-161
1.00257e-161
1.16893e-162
1.36032e-163
1.58007e-164
1.83188e-165
2.1199e-166
2.44867e-167
2.82325e-168
3.24921e-169
3.73267e-170
4.28036e-171
4.89964e-172
5.59857e-173
6.38592e-174
7.27123e-175
8.26484e-176
9.37797e-177
1.06227e-177
1.20121e-178
1.356e-179
1.52817e-180
1.71929e-181
1.93109e-182
2.16539e-183
2.4241e-184
2.70927e-185
3.02306e-186
3.36773e-187
3.74564e-188
4.1593e-189
4.61128e-190
5.1043e-191
5.64113e-192
6.22466e-193
6.85789e-194
7.54384e-195
8.28565e-196
9.08649e-197
9.94959e-198
1.08782e-198
1.18756e-199
1.29452e-200
1.409e-201
1.53135e-202
1.66188e-203
1.80089e-204
1.9487e-205
2.1056e-206
2.27186e-207
2.44775e-208
2.63351e-209
2.82937e-210
3.03552e-211
3.25213e-212
3.47937e-213
3.71734e-214
3.96612e-215
4.22577e-216
4.49629e-217
4.77767e-218
5.06982e-219
5.37264e-220
5.68596e-221
6.0096e-222
6.34329e-223
6.68673e-224
7.03959e-225
7.40147e-226
7.77191e-227
8.15043e-228
8.53647e-229
8.92946e-230
9.32874e-231
9.73363e-232
1.01434e-232
1.05573e-233
1.09745e-234
1.13941e-235
1.18153e-236
1.22371e-237
1.26586e-238
1.30789e-239
1.34969e-240
1.39117e-241
1.43221e-242
1.47273e-243
1.51261e-244
1.55175e-245
1.59005e-246
1.62741e-247
1.66373e-248
1.69891e-249
1.73285e-250
1.76546e-251
1.79666e-252
1.82634e-253
1.85445e-254
1.88088e-255
1.90558e-256
1.92848e-257
1.9495e-258
1.96861e-259
1.98573e-260
2.00085e-261
2.0139e-262
2.02487e-263
2.03372e-264
2.04045e-265
2.04504e-266
2.04748e-267
2.04777e-268
2.04594e-269
2.04198e-270
2.03593e-271
2.02782e-272
2.01767e-273
2.00553e-274
1.99144e-275
1.97546e-276
1.95763e-277
1.93804e-278
1.91672e-279
1.89377e-280
1.86925e-281
1.84323e-282
1.8158e-283
1.78705e-284
1.75704e-285
1.72587e-286
1.69363e-287
1.66041e-288
1.62629e-289
1.59136e-290
1.55572e-291
1.51945e-292
1.48264e-293
1.44537e-294
1.40774e-295
1.36983e-296
1.33171e-297
1.29347e-298
1.25518e-299
1.21693e-300
1.17878e-301
1.1408e-302
1.10306e-303
1.06561e-304
1.02853e-305
9.91856e-307
9.55653e-308
9.19965e-309
8.84839e-310
8.50317e-311
8.16435e-312
7.83229e-313
7.50731e-314
7.18967e-315
6.87962e-316
6.57738e-317
6.28313e-318
5.99702e-319
5.7193e-320
5.45448e-321
5.18769e-322
4.94066e-323
0
0
0
0
0
0
0
0
0
0
0
0
0
0
0
0
0
0
0
0
0
0
0
0
0
0
0
0
0
0
0
0
0
0
0
0
0
0
0
0
0
0
0
0
0
0
0
0
)
;

boundaryField
{
    sides
    {
        type            zeroGradient;
    }
    empty
    {
        type            empty;
    }
}


// ************************************************************************* //
