/*--------------------------------*- C++ -*----------------------------------*\
| =========                 |                                                 |
| \\      /  F ield         | OpenFOAM: The Open Source CFD Toolbox           |
|  \\    /   O peration     | Version:  2312                                  |
|   \\  /    A nd           | Website:  www.openfoam.com                      |
|    \\/     M anipulation  |                                                 |
\*---------------------------------------------------------------------------*/
FoamFile
{
    version     2.0;
    format      ascii;
    arch        "LSB;label=32;scalar=64";
    class       volScalarField;
    location    "1.1";
    object      T;
}
// * * * * * * * * * * * * * * * * * * * * * * * * * * * * * * * * * * * * * //

dimensions      [0 0 0 1 0 0 0];

internalField   nonuniform List<scalar> 
1000
(
1.14684e-162
-5.76893e-162
2.67677e-161
-1.24691e-160
5.79799e-160
-2.69155e-159
1.2474e-158
-5.77147e-158
2.66589e-157
-1.22934e-156
5.65947e-156
-2.60104e-155
1.19341e-154
-5.46632e-154
2.49958e-153
-1.14104e-152
5.19991e-152
-2.36564e-151
1.07438e-150
-4.87108e-150
2.20467e-149
-9.96123e-149
4.49295e-148
-2.02301e-147
9.09303e-147
-4.08002e-146
1.8275e-145
-8.17133e-145
3.64724e-144
-1.62507e-143
7.22789e-143
-3.20909e-142
1.42227e-141
-6.29229e-141
2.77882e-140
-1.225e-139
5.39051e-139
-2.36779e-138
1.03818e-137
-4.54376e-137
1.98505e-136
-8.65638e-136
3.76798e-135
-1.63715e-134
7.10017e-134
-3.07362e-133
1.3281e-132
-5.72808e-132
2.46593e-131
-1.0596e-130
4.54461e-130
-1.94552e-129
8.31308e-129
-3.54543e-128
1.50924e-127
-6.41243e-127
2.71934e-126
-1.15101e-125
4.86254e-125
-2.05029e-124
8.62849e-124
-3.62424e-123
1.51936e-122
-6.35713e-122
2.65472e-121
-1.10644e-120
4.60247e-120
-1.91073e-119
7.9169e-119
-3.27381e-118
1.35112e-117
-5.56505e-117
2.28761e-116
-9.38481e-116
3.84238e-115
-1.57001e-114
6.40218e-114
-2.60541e-113
1.05814e-112
-4.2887e-112
1.73469e-111
-7.00213e-111
2.82063e-110
-1.13388e-109
4.54872e-109
-1.82101e-108
7.27495e-108
-2.90029e-107
1.15384e-106
-4.58074e-106
1.81472e-105
-7.1741e-105
2.83011e-104
-1.11408e-103
4.37621e-103
-1.71535e-102
6.70922e-102
-2.61852e-101
1.01976e-100
-3.96277e-100
1.53657e-99
-5.94509e-99
2.29515e-98
-8.84113e-98
3.39817e-97
-1.30323e-96
4.98689e-96
-1.90401e-95
7.25334e-95
-2.75696e-94
1.04555e-93
-3.95615e-93
1.49354e-92
-5.62563e-92
2.11413e-91
-7.92678e-91
2.96525e-90
-1.10668e-89
4.12072e-89
-1.53078e-88
5.67336e-88
-2.09772e-87
7.73808e-87
-2.84769e-86
1.04549e-85
-3.82927e-85
1.39918e-84
-5.10023e-84
1.85464e-83
-6.72793e-83
2.43472e-82
-8.7894e-82
3.16525e-81
-1.13708e-80
4.07478e-80
-1.45661e-79
5.19404e-79
-1.8475e-78
6.55506e-78
-2.31995e-77
8.19002e-77
-2.88398e-76
1.01297e-75
-3.54887e-75
1.24014e-74
-4.32251e-74
1.50272e-73
-5.21068e-73
1.8021e-72
-6.21625e-72
2.13864e-71
-7.33838e-71
2.51138e-70
-8.57179e-70
2.91789e-69
-9.90611e-69
3.35403e-68
-1.13255e-67
3.81387e-67
-1.28083e-66
4.28967e-66
-1.43273e-65
4.77202e-65
-1.58502e-64
5.24996e-64
-1.73405e-63
5.71142e-63
-1.87586e-62
6.14358e-62
-2.00634e-61
6.53348e-61
-2.12145e-60
6.86858e-60
-2.21737e-59
7.13744e-59
-2.29072e-58
7.33033e-58
-2.33878e-57
7.43981e-57
-2.3596e-56
7.4612e-56
-2.35217e-55
7.39287e-55
-2.31651e-54
7.23643e-54
-2.25361e-53
6.99663e-53
-2.16546e-52
6.6812e-52
-2.05492e-51
6.30036e-51
-1.92557e-50
5.86633e-50
-1.78149e-49
5.39263e-49
-1.62709e-48
4.89337e-48
-1.46684e-47
4.38259e-47
-1.30509e-46
3.87352e-46
-1.14583e-45
3.3781e-45
-9.92562e-45
2.90647e-44
-8.48185e-44
2.46673e-43
-7.14909e-43
2.06476e-42
-5.94253e-42
1.7043e-41
-4.8706e-41
1.38699e-40
-3.93561e-40
1.11272e-39
-3.13464e-39
8.79848e-39
-2.46057e-38
6.85585e-38
-1.90316e-37
5.26344e-37
-1.45021e-36
3.98063e-36
-1.08848e-35
2.96502e-35
-8.04563e-35
2.17475e-34
-5.8555e-34
1.57041e-33
-4.19512e-33
1.11621e-32
-2.95808e-32
7.80765e-32
-2.05243e-31
5.37327e-31
-1.40095e-30
3.6375e-30
-9.40528e-30
2.42167e-29
-6.20894e-29
1.58514e-28
-4.02951e-28
1.0199e-27
-2.57021e-27
6.44868e-27
-1.61084e-26
4.00586e-26
-9.91719e-26
2.44407e-25
-5.99594e-25
1.46421e-24
-3.55905e-24
8.61065e-24
-2.07344e-23
4.96916e-23
-1.18521e-22
2.81325e-22
-6.64516e-22
1.56196e-21
-3.65327e-21
8.50204e-21
-1.96868e-20
4.5354e-20
-1.03951e-19
2.37022e-19
-5.37625e-19
1.21305e-18
-2.72248e-18
6.07734e-18
-1.34929e-17
2.9793e-17
-6.54212e-17
1.42855e-16
-3.10181e-16
6.69664e-16
-1.43745e-15
3.06759e-15
-6.50794e-15
1.37247e-14
-2.87704e-14
5.99438e-14
-1.24127e-13
2.55438e-13
-5.22355e-13
1.06139e-12
-2.14281e-12
4.29786e-12
-8.56343e-12
1.69486e-11
-3.33174e-11
6.50464e-11
-1.2611e-10
2.42776e-10
-4.64038e-10
8.80535e-10
-1.65859e-09
3.10089e-09
-5.75357e-09
1.05936e-08
-1.9353e-08
3.50752e-08
-6.30583e-08
1.12438e-07
-1.98819e-07
3.48582e-07
-6.05887e-07
1.04387e-06
-1.78237e-06
3.01556e-06
-5.05448e-06
8.39148e-06
-1.37964e-05
2.24576e-05
-3.61854e-05
5.76992e-05
-9.10251e-05
0.000142033
-0.000219142
0.000334225
-0.000503709
0.000749883
-0.00110233
0.00159937
-0.00228934
0.00323128
-0.00449471
0.00615782
-0.00830337
0.0110117
-0.0143498
0.0183572
-0.023027
0.0282852
-0.0339689
0.0398083
-0.0454154
0.0502881
-0.0538328
0.0554131
-0.0544247
0.0503952
-0.0430988
0.0326691
-0.0196851
0.00520312
0.00929294
-0.0220421
0.031257
-0.0354502
0.0337837
-0.0263631
0.014386
-6.81606e-05
-0.0136949
0.0239056
-0.0281797
0.0254277
-0.016293
0.00316391
0.0103314
-0.0202849
0.0236904
-0.0194838
0.00905389
0.00404772
-0.0152122
0.0203947
-0.0176868
0.00819633
0.00422109
-0.014411
0.0180582
-0.0136309
0.00321198
0.00830222
-0.0154161
0.0147058
-0.00662787
-0.0045637
0.0129236
-0.013974
0.0072382
0.00335479
-0.0116093
0.0126695
-0.00600406
-0.00414044
0.0112953
-0.0108896
0.00331311
0.00622306
-0.0111467
0.00809101
0.000632566
-0.008591
0.00990604
-0.00369818
-0.0051392
0.00965395
-0.00632743
-0.00201484
0.00841771
-0.00755039
0.000273883
0.00700259
-0.00787311
0.00166471
0.00586245
-0.00773575
0.00229107
0.00516396
-0.00738109
0.00225884
0.00499181
-0.00701778
0.00184443
0.00498922
-0.00617258
0.000424085
0.00604774
-0.00630515
0.000451725
0.00435414
-0.00198074
-0.00557979
0.0105194
-0.00855276
0.00425075
-0.00564823
0.0143872
-0.0236245
0.0266744
-0.0256261
0.0286244
-0.0389304
0.050094
-0.0540448
0.0515075
-0.0503627
0.0538313
-0.0550304
0.0461682
-0.0297021
0.0151715
-0.00593579
-0.00449869
0.0206028
-0.0353679
0.0385836
-0.0309659
0.0221879
-0.0156627
0.00464926
0.0134647
-0.0283859
0.0297091
-0.0213836
0.0137456
-0.00660053
-0.00704788
0.0230753
-0.0274699
0.0172846
-0.0049598
-0.00232416
0.0109266
-0.0217936
0.0220876
-0.00695065
-0.00868994
0.0131338
-0.0135603
0.015134
-0.00768356
-0.0102309
0.0197632
-0.012157
0.00257429
0.00122861
-0.00942878
0.0181899
-0.00980029
-0.0084072
0.0127728
-0.00705195
0.00672538
-0.00145427
-0.0142553
0.0155141
0.00186215
-0.00865586
0.00445742
-0.00903142
0.00596824
0.0134407
-0.0140194
-0.0041561
0.0043192
-0.00170556
0.0130377
-0.00156584
-0.0186521
0.00302574
0.00720631
0.00477741
0.0104511
-0.0125205
-0.0197527
0.00567091
0.0115959
0.0129321
0.0122192
-0.0180555
-0.0307695
-0.00765547
0.010389
0.0306459
0.0437532
0.00987639
-0.0386102
-0.064326
-0.0738166
-0.036508
0.0680416
0.199559
0.344776
0.507012
0.646978
0.751221
0.842867
0.909206
0.940674
0.966751
0.989424
0.991282
0.991677
1.00216
1.00167
0.994702
1.00051
1.00461
0.996924
0.997032
1.00451
1.00073
0.995206
1.00144
1.00411
0.996867
0.997182
1.00418
1.00128
0.995419
1.00023
1.00448
0.998471
0.995956
1.00255
1.00344
0.996716
0.99721
1.00378
1.0022
0.995906
0.998276
1.00429
1.0014
0.995599
0.998754
1.00447
1.00128
0.995502
0.998497
1.00447
1.00193
0.995653
0.997451
1.00405
1.00334
0.996505
0.995784
1.00256
1.00505
0.998837
0.994382
0.999279
1.00559
1.00296
0.995375
0.994825
1.00243
1.00669
1.00094
0.993399
0.99515
1.00411
1.00785
1.00082
0.992052
0.99329
1.00358
1.01023
1.00452
0.99252
0.98822
0.997423
1.01085
1.01389
1.00206
0.986118
0.981896
0.995176
1.01577
1.02581
1.01462
0.987858
0.964223
0.962639
0.989365
1.03307
1.06988
1.07447
1.03055
0.936229
0.802789
0.649199
0.495383
0.357075
0.243415
0.157096
0.0960616
0.0556787
0.0305895
0.0159205
0.00783973
0.00364478
0.00159433
0.000652661
0.000247892
8.60929e-05
2.65994e-05
6.86899e-06
1.20196e-06
-6.27706e-08
-1.83708e-07
-1.07155e-07
-4.45234e-08
-1.47325e-08
-3.80007e-09
-6.13937e-10
5.36252e-11
9.48688e-11
4.73504e-11
1.63756e-11
4.13544e-12
5.97199e-13
-8.61592e-14
-1.01839e-13
-4.41725e-14
-1.29446e-14
-2.44104e-15
-4.00998e-17
1.97366e-16
9.87486e-17
3.0018e-17
5.71999e-18
1.3621e-19
-4.13139e-19
-1.99508e-19
-5.64313e-20
-9.18047e-21
4.17144e-22
9.00762e-22
3.57214e-22
8.40244e-23
8.60407e-24
-2.67035e-24
-1.74581e-24
-5.23357e-25
-8.71212e-26
2.25798e-27
7.07216e-27
2.64656e-27
5.49768e-28
3.25041e-29
-2.48045e-29
-1.16812e-29
-2.78082e-30
-2.75891e-31
7.87073e-32
4.69735e-32
1.21946e-32
1.45672e-33
-2.41033e-34
-1.77125e-34
-4.80625e-35
-6.10748e-36
7.78216e-37
6.37374e-37
1.73254e-37
2.16001e-38
-2.81448e-39
-2.20261e-39
-5.74725e-40
-6.51001e-41
1.10769e-41
7.28169e-42
1.75006e-42
1.62642e-43
-4.37646e-44
-2.27744e-44
-4.84089e-45
-3.01736e-46
1.62878e-46
6.63714e-47
1.19183e-47
2.01946e-49
-5.52269e-49
-1.77062e-49
-2.51074e-50
1.42959e-51
1.67825e-51
4.2314e-52
4.11427e-53
-8.72721e-54
-4.51972e-54
-8.77682e-55
-3.42824e-56
3.19855e-56
1.06436e-56
1.48643e-57
-8.09426e-59
-9.11687e-59
-2.14166e-59
-1.71204e-60
5.03711e-61
2.13574e-61
3.50405e-62
-9.45223e-65
-1.5714e-63
-4.12414e-64
-4.02851e-65
7.2849e-66
3.63238e-66
6.31052e-67
8.61109e-69
-2.44168e-68
-6.596e-69
-6.58062e-70
1.06876e-70
5.39581e-71
9.12459e-72
7.67223e-74
-3.49806e-73
-8.92678e-74
-7.9142e-75
1.61335e-75
7.03973e-76
1.06752e-76
-1.79739e-78
-4.56971e-78
-1.01864e-78
-6.61849e-80
2.32172e-80
7.9574e-81
9.83988e-82
-6.93759e-83
-5.27197e-83
-9.57442e-84
-2.52989e-85
2.93086e-85
7.58176e-86
6.52843e-87
-1.26266e-87
-5.17109e-88
-7.03943e-89
2.69653e-90
3.07966e-90
5.83734e-91
2.05372e-92
-1.57805e-92
-4.14028e-93
-3.54237e-94
6.51274e-95
2.60234e-95
3.35998e-96
-1.60416e-97
-1.46482e-97
-2.55792e-98
-5.23598e-100
7.33689e-100
1.70156e-100
1.13885e-101
-3.17052e-102
-1.0211e-102
-1.07549e-103
1.06934e-104
5.60072e-105
7.96665e-106
-1.57053e-107
-2.8155e-107
-5.15097e-108
-1.5321e-109
1.28831e-109
3.02318e-110
2.0187e-111
-5.24847e-112
-1.64023e-112
-1.61471e-113
1.792e-114
8.30044e-115
1.06755e-115
-4.08536e-117
-3.93191e-117
-6.30161e-118
-4.84351e-120
1.74201e-119
3.42771e-120
1.42203e-121
-7.17513e-122
-1.74592e-122
-1.20676e-123
2.70764e-124
8.4041e-125
7.86954e-126
-9.05056e-127
-3.84394e-127
-4.49527e-128
2.44066e-129
1.67591e-129
2.35438e-130
-3.31514e-132
-6.9749e-132
-1.15538e-132
-1.80912e-134
2.77065e-134
5.37751e-135
2.1199e-136
-1.04847e-136
-2.39193e-137
-1.42455e-138
3.76331e-139
1.02201e-139
7.91378e-141
-1.27052e-141
-4.21007e-142
-3.95458e-143
3.96946e-144
1.6766e-144
1.83865e-145
-1.10852e-146
-6.46819e-147
-8.09183e-148
2.52091e-149
2.42134e-149
3.40514e-150
-2.94991e-152
-8.80673e-152
-1.37914e-152
-1.30712e-154
3.11542e-154
5.40063e-155
1.32878e-156
-1.07283e-156
-2.05167e-157
-7.70254e-159
3.59887e-159
7.58091e-160
3.70183e-161
-1.17669e-161
-2.73013e-162
-1.60613e-163
3.75167e-164
9.59919e-165
6.50705e-166
-1.16686e-166
-3.2999e-167
-2.50385e-168
3.54153e-169
1.11051e-169
9.24138e-171
-1.04922e-171
-3.66244e-172
-3.29227e-173
3.0352e-174
1.18485e-174
1.13696e-175
-8.57656e-177
-3.76342e-177
-3.81788e-178
2.36851e-179
1.17453e-179
1.24945e-180
-6.3976e-182
-3.6042e-182
-3.99209e-183
1.6923e-184
1.08817e-184
1.24699e-185
-4.39232e-187
-3.23422e-187
-3.81232e-188
1.12186e-189
9.46775e-190
1.14173e-190
-2.83201e-192
-2.73098e-192
-3.35192e-193
7.10857e-195
7.76508e-195
9.65249e-196
-1.7881e-197
-2.17703e-197
-2.72773e-198
4.54798e-200
6.01979e-200
7.56731e-201
-1.17974e-202
-1.64202e-202
-2.06151e-203
3.13954e-205
4.41885e-205
5.51598e-206
-8.58258e-208
-1.17329e-207
-1.44982e-208
2.40101e-210
3.0738e-210
3.74364e-211
-6.82273e-213
-7.9452e-213
-9.49652e-214
1.952e-215
2.0261e-215
2.36647e-216
-5.57687e-218
-5.09679e-218
-5.79234e-219
1.58057e-220
1.26458e-220
1.39232e-221
-4.42239e-223
-3.09409e-223
-3.2858e-224
1.21761e-225
7.46398e-226
7.61042e-227
-3.29214e-228
-1.77486e-228
-1.72919e-229
8.73051e-231
4.15917e-231
3.85206e-232
-2.2694e-233
-9.6027e-234
-8.40702e-235
5.78059e-236
2.18376e-236
1.79591e-237
-1.44277e-238
-4.89014e-239
-3.75059e-240
3.52876e-241
1.07799e-241
7.64544e-243
-8.45882e-244
-2.33856e-244
-1.51803e-245
1.98765e-246
4.99092e-247
2.92728e-248
-4.5793e-249
-1.04751e-249
-5.45943e-251
1.03458e-251
2.16127e-252
9.7857e-254
-2.29253e-254
-4.38178e-255
-1.66872e-256
4.98321e-257
8.72524e-258
2.65873e-259
-1.06268e-259
-1.7055e-260
-3.81352e-262
2.22346e-262
3.27037e-263
4.46005e-265
-4.56479e-265
-6.14735e-266
-2.55577e-268
9.1957e-268
1.1317e-268
-7.1058e-271
-1.81767e-270
-2.03816e-271
3.65602e-273
3.53501e-273
2.83948e-274
)
;

boundaryField
{
    sides
    {
        type            zeroGradient;
    }
    empty
    {
        type            empty;
    }
}


// ************************************************************************* //
