/*--------------------------------*- C++ -*----------------------------------*\
| =========                 |                                                 |
| \\      /  F ield         | OpenFOAM: The Open Source CFD Toolbox           |
|  \\    /   O peration     | Version:  2312                                  |
|   \\  /    A nd           | Website:  www.openfoam.com                      |
|    \\/     M anipulation  |                                                 |
\*---------------------------------------------------------------------------*/
FoamFile
{
    version     2.0;
    format      ascii;
    arch        "LSB;label=32;scalar=64";
    class       volScalarField;
    location    "2.1";
    object      T;
}
// * * * * * * * * * * * * * * * * * * * * * * * * * * * * * * * * * * * * * //

dimensions      [0 0 0 1 0 0 0];

internalField   nonuniform List<scalar> 
1000
(
0
0
0
0
0
0
0
0
0
0
0
0
0
0
0
0
0
0
0
0
0
0
0
0
0
0
0
0
0
0
0
0
0
0
0
0
0
0
0
0
0
0
0
0
0
0
1.4822e-323
-2.56914e-322
3.43376e-321
-4.65953e-320
6.32453e-319
-8.55534e-318
1.15348e-316
-1.55003e-315
2.07601e-314
-2.77123e-313
3.68693e-312
-4.88882e-311
6.46081e-310
-8.50961e-309
1.11704e-307
-1.46137e-306
1.90537e-305
-2.47586e-304
3.20623e-303
-4.13791e-302
5.32208e-301
-6.82171e-300
8.71389e-299
-1.10926e-297
1.4072e-296
-1.77899e-295
2.24122e-294
-2.81373e-293
3.52017e-292
-4.3886e-291
5.45212e-290
-6.74957e-289
8.32637e-288
-1.02353e-286
1.25373e-285
-1.53026e-284
1.86113e-283
-2.25547e-282
2.72358e-281
-3.27706e-280
3.92882e-279
-4.69323e-278
5.58609e-277
-6.62471e-276
7.82786e-275
-9.21579e-274
1.08101e-272
-1.26338e-271
1.47108e-270
-1.70662e-269
1.97254e-268
-2.27144e-267
2.6059e-266
-2.97846e-265
3.39155e-264
-3.84743e-263
4.34817e-262
-4.89553e-261
5.49092e-260
-6.13533e-259
6.82927e-258
-7.57265e-257
8.36477e-256
-9.20424e-255
1.00889e-253
-1.10158e-252
1.19812e-251
-1.29806e-250
1.40083e-249
-1.50582e-248
1.61233e-247
-1.71956e-246
1.82667e-245
-1.93276e-244
2.03686e-243
-2.13801e-242
2.23519e-241
-2.32739e-240
2.41362e-239
-2.49292e-238
2.56437e-237
-2.62713e-236
2.68042e-235
-2.72357e-234
2.75603e-233
-2.77736e-232
2.78725e-231
-2.78554e-230
2.77222e-229
-2.74741e-228
2.71137e-227
-2.66451e-226
2.60738e-225
-2.54063e-224
2.46504e-223
-2.38145e-222
2.29081e-221
-2.19412e-220
2.09242e-219
-1.98675e-218
1.8782e-217
-1.7678e-216
1.65657e-215
-1.5455e-214
1.43548e-213
-1.32737e-212
1.22191e-211
-1.1198e-210
1.0216e-209
-9.27793e-209
8.3878e-208
-7.54852e-207
6.76214e-206
-6.02985e-205
5.35205e-204
-4.72844e-203
4.15805e-202
-3.63938e-201
3.17046e-200
-2.74894e-199
2.37217e-198
-2.03732e-197
1.74137e-196
-1.48127e-195
1.25395e-194
-1.05638e-193
8.85604e-193
-7.38811e-192
6.13323e-191
-5.06639e-190
4.16438e-189
-3.40592e-188
2.77166e-187
-2.24417e-186
1.80789e-185
-1.44904e-184
1.15548e-183
-9.16676e-183
7.23475e-182
-5.68036e-181
4.43671e-180
-3.4472e-179
2.66428e-178
-2.04829e-177
1.56634e-176
-1.19139e-175
9.01321e-175
-6.7819e-174
5.07524e-173
-3.7773e-172
2.79584e-171
-2.05795e-170
1.50639e-169
-1.09649e-168
7.93633e-168
-5.71177e-167
4.08736e-166
-2.90817e-165
2.05725e-164
-1.44687e-163
1.01165e-162
-7.03188e-162
4.85892e-161
-3.33747e-160
2.2787e-159
-1.54643e-158
1.04311e-157
-6.99314e-157
4.65944e-156
-3.08529e-155
2.03022e-154
-1.32756e-153
8.62593e-153
-5.56908e-152
3.57243e-151
-2.2768e-150
1.44161e-149
-9.06794e-149
5.66612e-148
-3.51687e-147
2.16818e-146
-1.32765e-145
8.07402e-145
-4.87633e-144
2.92461e-143
-1.74175e-142
1.02997e-141
-6.04713e-141
3.52483e-140
-2.03966e-139
1.17161e-138
-6.68004e-138
3.78022e-137
-2.12307e-136
1.18328e-135
-6.54411e-135
3.59105e-134
-1.95508e-133
1.05594e-132
-5.65731e-132
3.00633e-131
-1.58445e-130
8.28116e-130
-4.29175e-129
2.20527e-128
-1.12338e-127
5.67257e-127
-2.83904e-126
1.40816e-125
-6.92091e-125
3.37017e-124
-1.62576e-123
7.76821e-123
-3.67601e-122
1.7225e-121
-7.99098e-121
3.66964e-120
-1.66784e-119
7.5009e-119
-3.33745e-118
1.46882e-117
-6.39266e-117
2.75077e-116
-1.16998e-115
4.9175e-115
-2.04188e-114
8.37355e-114
-3.39034e-113
1.35482e-112
-5.34158e-112
2.07697e-111
-7.96116e-111
3.00678e-110
-1.11836e-109
4.09414e-109
-1.47425e-108
5.21785e-108
-1.81374e-107
6.1861e-107
-2.06803e-106
6.76794e-106
-2.16509e-105
6.75846e-105
-2.05413e-104
6.06216e-104
-1.73104e-103
4.75978e-103
-1.25178e-102
3.11671e-102
-7.22357e-102
1.50951e-101
-2.63745e-101
2.88618e-101
3.47793e-101
-3.60264e-100
1.50274e-99
-4.7956e-99
1.28255e-98
-2.88009e-98
5.03031e-98
-4.43657e-98
-1.2557e-97
8.66397e-97
-3.12095e-96
8.44055e-96
-1.75061e-95
2.30006e-95
1.21133e-95
-2.02435e-94
8.03465e-94
-2.16525e-93
4.10606e-93
-3.53584e-93
-1.14712e-92
7.08436e-92
-2.21418e-91
4.61346e-91
-4.76474e-91
-1.00483e-90
7.08958e-90
-2.19984e-89
4.23889e-89
-2.76638e-89
-1.59939e-88
7.9467e-88
-2.04758e-87
2.80894e-87
2.23565e-87
-2.59915e-86
8.26568e-86
-1.42388e-85
5.07947e-87
8.67845e-85
-3.14915e-84
5.83141e-84
-1.08576e-84
-3.22392e-83
1.18466e-82
-2.08473e-82
-1.84648e-83
1.34137e-81
-4.36958e-81
6.26605e-81
6.11427e-81
-5.80293e-80
1.49529e-79
-1.24279e-79
-5.13669e-79
2.35639e-78
-4.18915e-78
-1.36634e-78
2.93331e-77
-7.98242e-77
6.13474e-77
2.97025e-76
-1.23009e-75
1.77048e-75
2.27385e-75
-1.69129e-74
3.3648e-74
7.29388e-75
-2.18463e-73
5.45648e-73
-1.69066e-73
-2.75687e-72
8.16644e-72
-4.89251e-72
-3.5212e-71
1.16944e-70
-8.55516e-71
-4.68703e-70
1.63019e-69
-1.18929e-69
-6.5946e-69
2.22166e-68
-1.32262e-68
-9.73582e-68
2.93832e-67
-9.34869e-68
-1.47105e-66
3.69568e-66
5.1435e-67
-2.20169e-65
4.24711e-65
3.7989e-65
-3.15261e-64
4.0809e-64
9.76064e-64
-4.15145e-63
2.36268e-63
1.87703e-62
-4.73775e-62
-1.9241e-62
2.96521e-61
-4.08065e-61
-9.40599e-61
3.82424e-60
-1.12766e-60
-1.91528e-59
3.65895e-59
4.75838e-59
-2.72231e-58
1.496e-58
1.25762e-57
-2.62378e-57
-3.09084e-57
1.84289e-56
-8.32865e-57
-8.79378e-56
1.58655e-55
2.69165e-55
-1.18003e-54
-5.71708e-57
6.27655e-54
-7.20024e-54
-2.51168e-53
6.54942e-53
6.2498e-53
-4.09002e-52
8.46238e-53
2.05708e-51
-2.39783e-51
-8.50364e-51
2.00619e-50
2.67395e-50
-1.2617e-49
-3.60675e-50
6.77957e-49
-3.24013e-49
-3.24167e-48
3.90898e-48
1.39395e-47
-2.87962e-47
-5.32549e-47
1.76908e-46
1.71395e-46
-9.82401e-46
-3.7434e-46
5.10785e-45
-3.76473e-46
-2.5368e-44
1.16367e-44
1.22004e-43
-9.78463e-44
-5.74368e-43
6.39882e-43
2.67193e-42
-3.72446e-42
-1.23891e-41
2.02128e-41
5.77095e-41
-1.04467e-40
-2.71817e-40
5.19542e-40
1.3002e-39
-2.49678e-39
-6.3249e-39
1.15893e-38
3.12324e-38
-5.16838e-38
-1.55812e-37
2.18793e-37
7.7992e-37
-8.57851e-37
-3.88483e-36
2.9455e-36
1.90814e-35
-7.4053e-36
-9.14928e-35
-1.00262e-36
4.23216e-34
1.9122e-34
-1.85943e-33
-1.79839e-33
7.57704e-33
1.23714e-32
-2.73853e-32
-7.26853e-32
7.82712e-32
3.79593e-31
-9.32075e-32
-1.77054e-30
-8.8649e-31
7.22751e-30
9.65331e-30
-2.41967e-29
-6.31104e-29
5.18876e-29
3.24094e-28
7.13667e-29
-1.34935e-27
-1.62694e-27
4.23461e-27
1.14013e-26
-6.27092e-27
-5.58655e-26
-3.49072e-26
1.99488e-25
3.80089e-25
-3.9768e-25
-2.09245e-24
-9.09008e-25
7.66184e-24
1.36928e-23
-1.40394e-23
-7.59128e-23
-4.54374e-23
2.51069e-22
5.43687e-22
-2.47316e-22
-2.59197e-21
-2.8669e-21
6.18796e-21
2.12008e-20
8.33293e-21
-7.20578e-20
-1.50434e-19
3.99914e-20
6.66177e-19
9.73758e-19
-9.53847e-19
-5.50526e-18
-6.03376e-18
1.06521e-17
4.29477e-17
3.81982e-17
-9.42441e-17
-3.262e-16
-2.67247e-16
7.23607e-16
2.44616e-15
2.15619e-15
-4.85346e-15
-1.80495e-14
-1.93228e-14
2.65979e-14
1.28137e-13
1.77322e-13
-8.51553e-14
-8.35719e-13
-1.54808e-12
-4.51262e-13
4.5585e-12
1.20884e-11
1.17669e-11
-1.53906e-11
-7.80985e-11
-1.32719e-10
-4.72176e-11
3.47336e-10
1.02002e-09
1.34081e-09
-1.30697e-10
-4.9079e-09
-1.21232e-08
-1.476e-08
2.20659e-09
5.50748e-08
1.38891e-07
1.90274e-07
5.8529e-08
-4.60773e-07
-1.45587e-06
-2.5511e-06
-2.47129e-06
1.14567e-06
1.10567e-05
2.80643e-05
4.65545e-05
4.86104e-05
-4.75987e-07
-0.000149613
-0.000443887
-0.000881836
-0.00134132
-0.00147472
-0.000586285
0.00248112
0.00941017
0.0223799
0.0439073
0.0765467
0.122471
0.182995
0.258141
0.346344
0.444406
0.54773
0.650834
0.748055
0.834327
0.905857
0.960586
0.998339
1.02065
1.03033
1.03086
1.02581
1.01831
1.0107
1.00445
1.00018
0.997882
0.997153
0.99743
0.998182
0.999005
0.999666
1.00008
1.00026
1.00028
1.00021
1.00012
1.00004
0.999993
0.999973
0.999973
0.999981
0.999991
0.999998
1
1
1
1
1
1
1
1
1
1
1
1
1
1
1
1
1
1
1
1
1
1
1
1
1
1
1
1
1
1
1
1
1
1
1
1
1
1
1
1
1
1
1
1
1
0.999999
0.999989
0.999972
0.999953
0.999951
1
1.00015
1.00044
1.00088
1.00134
1.00147
1.00059
0.997519
0.99059
0.97762
0.956093
0.923453
0.877529
0.817005
0.741859
0.653656
0.555594
0.45227
0.349166
0.251945
0.165673
0.0941429
0.0394138
0.00166138
-0.020649
-0.0303251
-0.0308581
-0.025811
-0.0183075
-0.0107002
-0.00444823
-0.000179509
0.00211763
0.00284749
0.00256983
0.00181838
0.000994687
0.000333545
-7.89486e-05
-0.000259526
-0.000276462
-0.000207931
-0.000116611
-4.01314e-05
7.14892e-06
2.66862e-05
2.73827e-05
1.91564e-05
9.41612e-06
2.08333e-06
-1.80324e-06
-2.8859e-06
-2.37613e-06
-1.34592e-06
-4.44798e-07
8.78547e-08
2.76958e-07
2.54594e-07
1.52513e-07
5.49881e-08
-4.56283e-09
-2.64524e-08
-2.49544e-08
-1.47349e-08
-5.03277e-09
6.74329e-10
2.57958e-09
2.2636e-09
1.2277e-09
3.40191e-10
-1.27874e-10
-2.46205e-10
-1.85945e-10
-8.55288e-11
-1.30661e-11
1.83341e-11
2.14881e-11
1.32199e-11
4.53046e-12
-4.80082e-13
-1.98702e-12
-1.60931e-12
-7.54267e-13
-1.23544e-13
1.43802e-13
1.66321e-13
9.6662e-14
2.87656e-14
-6.82842e-15
-1.51176e-14
-1.06069e-14
-4.1047e-15
-7.19597e-17
1.23419e-15
1.04473e-15
4.76279e-16
6.69066e-17
-9.19704e-17
-9.50056e-17
-4.86575e-17
-1.03305e-17
6.3676e-18
8.13846e-18
4.53771e-18
1.16428e-18
-4.20874e-19
-6.66926e-19
-3.94116e-19
-1.11207e-19
2.77815e-20
5.28916e-20
3.22597e-20
9.44827e-21
-1.94521e-21
-4.08986e-21
-2.50497e-21
-7.27644e-22
1.50762e-22
3.09249e-22
1.85001e-22
5.1023e-23
-1.27624e-23
-2.28312e-23
-1.29844e-23
-3.23382e-24
1.11751e-24
1.63742e-24
8.62671e-25
1.80849e-25
-9.61141e-26
-1.13232e-25
-5.38634e-26
-8.37103e-27
7.86831e-27
7.48359e-27
3.12401e-27
2.53208e-28
-6.03514e-28
-4.68081e-28
-1.65109e-28
4.32894e-30
4.30289e-29
2.73978e-29
7.67168e-30
-1.53967e-30
-2.83676e-30
-1.47942e-30
-2.8758e-31
1.62717e-31
1.71985e-31
7.21509e-32
6.07066e-33
-1.28251e-32
-9.513e-33
-3.05775e-33
2.50162e-34
8.50995e-34
4.73742e-34
1.02505e-34
-4.28012e-35
-4.92512e-35
-2.07212e-35
-1.77419e-36
3.4846e-36
2.50467e-36
7.53669e-37
-9.06918e-38
-2.17727e-37
-1.10698e-37
-1.92166e-38
1.22678e-38
1.13552e-38
4.09403e-39
6.59325e-42
-8.57698e-40
-5.01902e-40
-1.12834e-40
3.89556e-41
4.58599e-41
1.83587e-41
1.10918e-42
-3.12206e-42
-2.00441e-42
-5.0416e-43
1.20015e-43
1.69205e-43
7.10127e-44
5.96269e-45
-1.08066e-44
-7.19495e-45
-1.85542e-45
3.90178e-46
5.78649e-46
2.4156e-46
1.96503e-47
-3.6093e-47
-2.34218e-47
-5.75386e-48
1.37924e-48
1.84138e-48
7.26306e-49
3.97755e-50
-1.15911e-49
-6.91294e-50
-1.49269e-50
5.02008e-51
5.42245e-51
1.91756e-51
2.48173e-54
-3.5165e-52
-1.83472e-52
-3.09346e-53
1.74071e-53
1.45904e-53
4.35463e-54
-3.96435e-55
-9.84435e-55
-4.30716e-55
-4.332e-56
5.45787e-56
3.52354e-56
8.11411e-57
-2.12124e-57
-2.48376e-57
-8.69429e-58
-5.03283e-61
1.5054e-58
7.45846e-59
1.08714e-59
-7.45562e-60
-5.51815e-60
-1.42831e-60
2.41054e-61
3.59218e-61
1.33565e-61
4.16642e-63
-2.03913e-62
-1.0506e-62
-1.64252e-63
9.58963e-64
7.29394e-64
1.88807e-64
-3.03692e-65
-4.53201e-65
-1.6424e-65
-3.48043e-67
2.50305e-66
1.22794e-66
1.69453e-67
-1.1856e-67
-8.22123e-68
-1.91281e-68
4.26014e-69
4.99953e-69
1.62264e-69
-4.5322e-71
-2.75944e-70
-1.18677e-70
-1.0821e-71
1.35871e-71
7.82645e-72
1.4264e-72
-5.66579e-73
-4.73853e-73
-1.25182e-73
1.65984e-74
2.64866e-74
9.24305e-75
8.04706e-77
-1.36152e-75
-6.12449e-76
-6.48051e-77
6.33109e-77
3.73854e-77
6.89307e-78
-2.54868e-78
-2.12747e-78
-5.45733e-79
7.71654e-80
1.13345e-79
3.74676e-80
-4.55361e-82
-5.64422e-81
-2.34427e-81
-1.82542e-82
2.60417e-82
1.36652e-82
2.04671e-83
-1.08966e-83
-7.50408e-84
-1.6027e-84
3.91988e-85
3.90325e-85
1.07527e-85
-1.01137e-86
-1.92641e-86
-6.56374e-87
-2.75017e-89
9.00638e-88
3.74162e-88
2.90668e-89
-3.9655e-89
-2.01882e-89
-2.79223e-90
1.62342e-90
1.03894e-90
1.99834e-91
-6.01069e-92
-5.12211e-92
-1.24874e-92
1.87646e-93
2.42473e-93
7.17262e-94
-3.75209e-95
-1.1028e-94
-3.87632e-95
-7.56342e-97
4.81376e-96
1.99612e-96
1.53264e-97
-2.01037e-97
-9.87096e-98
-1.2233e-98
7.68499e-99
)
;

boundaryField
{
    sides
    {
        type            zeroGradient;
    }
    empty
    {
        type            empty;
    }
}


// ************************************************************************* //
