/*--------------------------------*- C++ -*----------------------------------*\
| =========                 |                                                 |
| \\      /  F ield         | OpenFOAM: The Open Source CFD Toolbox           |
|  \\    /   O peration     | Version:  2312                                  |
|   \\  /    A nd           | Website:  www.openfoam.com                      |
|    \\/     M anipulation  |                                                 |
\*---------------------------------------------------------------------------*/
FoamFile
{
    version     2.0;
    format      ascii;
    arch        "LSB;label=32;scalar=64";
    class       volScalarField;
    location    "4.2";
    object      T;
}
// * * * * * * * * * * * * * * * * * * * * * * * * * * * * * * * * * * * * * //

dimensions      [0 0 0 1 0 0 0];

internalField   nonuniform List<scalar> 
1000
(
0
0
0
0
0
0
0
0
0
0
0
0
0
0
0
0
0
0
0
0
0
0
0
0
0
0
0
0
0
0
0
0
0
0
0
0
0
0
0
0
0
0
0
0
0
0
0
0
0
0
0
0
0
0
0
0
0
0
0
0
0
0
0
0
0
0
0
0
0
0
0
0
0
0
0
0
0
0
0
0
0
0
0
0
0
0
0
0
0
0
0
0
0
0
0
0
0
0
0
0
0
0
0
0
0
0
0
0
0
0
0
0
0
0
0
0
0
0
0
0
0
0
0
0
0
0
0
0
0
0
0
0
0
0
0
0
0
0
0
0
0
0
0
0
0
0
0
0
0
0
0
0
0
0
0
0
0
0
0
0
0
0
0
0
0
0
0
0
0
0
0
0
0
-4.94066e-324
2.96439e-323
-4.94066e-324
2.96439e-323
-4.94066e-324
2.96439e-323
-4.94066e-324
2.96439e-323
-4.94066e-324
2.96439e-323
-4.94066e-324
2.96439e-323
-4.94066e-324
2.96439e-323
-4.94066e-324
2.96439e-323
-4.94066e-324
2.96439e-323
-4.94066e-324
2.96439e-323
-4.94066e-324
2.96439e-323
-4.94066e-324
2.96439e-323
-4.94066e-324
2.96439e-323
-4.94066e-324
2.96439e-323
-4.94066e-324
2.96439e-323
-4.94066e-324
2.96439e-323
-4.94066e-324
2.96439e-323
-4.94066e-324
2.96439e-323
-4.94066e-324
2.96439e-323
-4.94066e-324
2.96439e-323
-4.94066e-324
2.96439e-323
-4.94066e-324
2.96439e-323
-4.94066e-324
2.96439e-323
-4.94066e-324
2.96439e-323
-4.94066e-324
2.96439e-323
-4.94066e-324
2.96439e-323
-4.94066e-324
2.96439e-323
-4.94066e-324
2.96439e-323
-4.94066e-324
2.96439e-323
-4.94066e-324
2.96439e-323
-4.94066e-324
2.96439e-323
-4.94066e-324
2.96439e-323
-4.94066e-324
2.96439e-323
-4.94066e-324
2.96439e-323
-4.94066e-324
2.96439e-323
-4.94066e-324
2.96439e-323
-4.94066e-324
2.96439e-323
-4.94066e-324
2.96439e-323
-4.94066e-324
2.96439e-323
-4.94066e-324
2.96439e-323
-4.94066e-324
2.96439e-323
-4.94066e-324
2.96439e-323
-4.94066e-324
9.88131e-324
2.96439e-323
5.43472e-323
7.41098e-323
9.88131e-323
1.18576e-322
1.43279e-322
1.63042e-322
1.87745e-322
2.12448e-322
2.37152e-322
2.61855e-322
2.86558e-322
3.06321e-322
3.26083e-322
3.45846e-322
3.65609e-322
4.15015e-322
4.00193e-322
3.7549e-322
3.55727e-322
3.35965e-322
3.16202e-322
2.96439e-322
2.76677e-322
2.51973e-322
2.2727e-322
2.02567e-322
1.77864e-322
1.5316e-322
1.33398e-322
1.08694e-322
8.89318e-323
6.42285e-323
4.44659e-323
1.97626e-323
-4.94066e-324
-2.96439e-323
-4.94066e-323
-7.41098e-323
-9.38725e-323
-1.13635e-322
-1.38338e-322
-1.63042e-322
-1.87745e-322
-2.07508e-322
-2.2727e-322
-2.51973e-322
-2.96439e-322
-9.33784e-322
-8.24101e-321
-8.63923e-320
-8.86709e-319
-8.80684e-318
-8.53774e-317
-8.20339e-316
-7.97446e-315
-8.02406e-314
-8.50127e-313
-9.57786e-312
-1.13993e-310
-1.49552e-309
-2.08914e-308
-6.29338e-307
-6.46347e-305
-2.05079e-304
3.61776e-303
2.89572e-301
1.53922e-299
6.42932e-298
2.20001e-296
6.34126e-295
1.57201e-293
3.40611e-292
6.53351e-291
1.12107e-289
1.73559e-288
2.44178e-287
3.14079e-286
3.71222e-285
4.04777e-284
4.08126e-283
3.80797e-282
3.30776e-281
2.77941e-280
2.50095e-279
2.71567e-278
3.61117e-277
5.39747e-276
8.34114e-275
1.28602e-273
2.02178e-272
3.50118e-271
5.7051e-270
9.79649e-270
-5.40287e-269
-1.73192e-267
-3.80018e-266
-7.55712e-265
-1.37839e-263
-2.30544e-262
-3.54175e-261
-5.01248e-260
-6.55777e-259
-7.95777e-258
-8.98492e-257
-9.47224e-256
-9.39761e-255
-8.99952e-254
-8.83937e-253
-9.67909e-252
-1.23503e-250
-1.78244e-249
-2.73773e-248
-4.28852e-247
-6.76131e-246
-1.1055e-244
-1.94683e-243
-8.29965e-243
4.16636e-243
4.00929e-241
9.16314e-240
1.88916e-238
3.63574e-237
6.4894e-236
1.07017e-234
1.63001e-233
2.29657e-232
3.0004e-231
3.64509e-230
4.13003e-229
4.37757e-228
4.35413e-227
4.07934e-226
3.6232e-225
3.09614e-224
2.63467e-223
2.36448e-222
2.37042e-221
2.69878e-220
3.36406e-219
4.40309e-218
6.2163e-217
1.05126e-215
1.52178e-214
1.81837e-214
-2.29342e-213
-7.56992e-212
-1.97909e-210
-4.74925e-209
-1.04148e-207
-2.0783e-206
-3.7761e-205
-6.26549e-204
-9.53178e-203
-1.33535e-201
-1.73039e-200
-2.08327e-199
-2.34038e-198
-2.46484e-197
-2.44783e-196
-2.31084e-195
-2.09843e-194
-1.86768e-193
-1.68261e-192
-1.5963e-191
-1.63358e-190
-1.7957e-189
-2.07932e-188
-2.50585e-187
-3.12519e-186
-3.94347e-185
-4.22735e-184
-8.00491e-184
1.19086e-183
3.51623e-182
5.0098e-181
6.81202e-180
8.97648e-179
1.06776e-177
1.16981e-176
1.43576e-175
2.183e-174
3.50524e-173
5.08107e-172
6.24888e-171
6.26418e-170
5.1111e-169
4.49431e-168
6.92472e-167
1.73295e-165
4.21963e-164
4.31731e-163
2.06113e-162
5.70331e-162
2.57371e-161
4.80304e-160
7.85609e-159
8.13804e-159
-1.48279e-157
-1.09878e-156
3.16588e-157
3.00492e-155
2.62916e-155
-6.77183e-154
-1.22201e-152
-1.78928e-152
9.69146e-152
1.10903e-150
1.01677e-150
-7.91505e-150
-8.19725e-149
-4.42894e-148
-1.58359e-147
-4.25068e-147
-1.16119e-146
-4.5354e-146
-2.39905e-145
-1.35045e-144
-7.49837e-144
-4.14779e-143
-2.27548e-142
-1.25591e-141
-8.19695e-141
-7.87809e-140
-1.05641e-138
-1.61445e-137
-2.4915e-136
-3.63932e-135
-1.97164e-134
-1.78987e-134
-2.10406e-134
-2.72837e-133
-4.98864e-132
-7.7205e-131
-3.25603e-130
-2.99389e-131
7.5761e-129
4.57828e-128
2.18043e-128
-7.69019e-127
-1.10283e-125
-2.27405e-125
3.66278e-125
1.08299e-123
5.98153e-123
3.42865e-123
-7.07823e-122
-1.53893e-121
3.36644e-121
8.61398e-120
1.13289e-118
1.01381e-117
1.34628e-117
-4.31486e-117
-6.26207e-116
-7.80627e-116
3.38219e-115
6.26383e-114
6.09055e-113
9.93427e-113
-1.65907e-112
-4.02686e-111
-3.67241e-110
-5.44189e-110
1.07638e-109
2.33711e-108
1.75692e-107
2.00582e-107
-7.15947e-107
-1.22458e-105
-1.03885e-104
-1.63444e-104
2.16086e-104
5.1744e-103
4.87736e-102
1.04526e-101
-2.85299e-102
-1.91936e-100
-2.0229e-99
-1.03594e-98
-9.83025e-99
4.62425e-98
6.43041e-97
4.45369e-96
5.93837e-96
-9.3167e-96
-1.8375e-94
-1.68761e-93
-7.86713e-93
-7.48537e-93
2.96645e-92
3.95816e-91
3.31241e-90
1.19305e-89
9.22162e-90
-6.04251e-89
-6.90718e-88
-5.37651e-87
-1.66593e-86
-1.11635e-86
9.433e-86
9.92247e-85
7.33202e-84
2.12909e-83
1.38668e-83
-1.1736e-82
-1.18967e-81
-8.66826e-81
-5.81837e-80
-3.78503e-79
-2.41921e-78
-1.52664e-77
-9.52246e-77
-5.88282e-76
-3.5925e-75
-2.17919e-74
-1.01713e-73
-1.33098e-73
5.67434e-74
1.82652e-72
1.35133e-71
8.34341e-71
4.86107e-70
2.75987e-69
1.5427e-68
8.52018e-68
4.65531e-67
2.51762e-66
1.34792e-65
7.14522e-65
3.75033e-64
1.94916e-63
1.00316e-62
5.11272e-62
2.58054e-61
1.28992e-60
6.38589e-60
3.13116e-59
1.52064e-58
7.31478e-58
3.48533e-57
1.645e-56
7.69103e-56
3.56213e-55
1.63439e-54
7.42911e-54
3.34551e-53
1.49261e-52
6.59782e-52
2.88958e-51
1.2539e-50
5.39129e-50
2.29687e-49
9.69626e-49
4.05607e-48
1.68132e-47
6.90637e-47
2.81132e-46
1.13408e-45
4.53372e-45
1.7962e-44
7.05264e-44
2.74443e-43
1.05844e-42
4.04573e-42
1.53269e-41
5.755e-41
2.14178e-40
7.90045e-40
2.88855e-39
1.0468e-38
3.76021e-38
1.33884e-37
4.72518e-37
1.65305e-36
5.7324e-36
1.97049e-35
6.7143e-35
2.26789e-34
7.5935e-34
2.52036e-33
8.29254e-33
2.7047e-32
8.74499e-32
2.80292e-31
8.90586e-31
2.80515e-30
8.75894e-30
2.71122e-29
8.31948e-29
2.53073e-28
7.63159e-28
2.28141e-27
6.76098e-27
1.98625e-26
5.78466e-26
1.67008e-25
4.77981e-25
1.35612e-24
3.81414e-24
1.06342e-23
2.93912e-23
8.05259e-23
2.18703e-22
5.88802e-22
1.57137e-21
4.15695e-21
1.09008e-20
2.83347e-20
7.30054e-20
1.86449e-19
4.71986e-19
1.18428e-18
2.94531e-18
7.26023e-18
1.77381e-17
4.29527e-17
1.03085e-16
2.45195e-16
5.78005e-16
1.35034e-15
3.12637e-15
7.17317e-15
1.63096e-14
3.67475e-14
8.2045e-14
1.81511e-13
3.97897e-13
8.64251e-13
1.85993e-12
3.96577e-12
8.37755e-12
1.75328e-11
3.63505e-11
7.4659e-11
1.51896e-10
3.06117e-10
6.11062e-10
1.20815e-09
2.36577e-09
4.58797e-09
8.81139e-09
1.67579e-08
3.15592e-08
5.88486e-08
1.08649e-07
1.98596e-07
3.5937e-07
6.43741e-07
1.14144e-06
2.00324e-06
3.47953e-06
5.98118e-06
1.01741e-05
1.71243e-05
2.85168e-05
4.69813e-05
7.65674e-05
0.00012343
0.000196792
0.00031029
0.000483787
0.000745796
0.00113662
0.00171236
0.00254979
0.00375224
0.00545631
0.00783921
0.0111264
0.0155985
0.0215972
0.029528
0.0398594
0.0531157
0.0698624
0.0906837
0.116149
0.14677
0.182953
0.224937
0.272744
0.326122
0.384508
0.447007
0.512401
0.579189
0.645657
0.709986
0.77038
0.825205
0.87313
0.913237
0.945097
0.968786
0.984848
0.994265
0.998553
0.999809
0.99999
1
1
1
1
1
1
1
1
1
1
1
1
1
1
1
1
1
1
1
1
1
1
1
1
1
1
1
1
1
1
1
1
1
1
1
1
1
1
1
1
1
1
1
1
1
1
1
1
0.999999
0.999999
0.999998
0.999997
0.999994
0.99999
0.999983
0.999971
0.999953
0.999923
0.999876
0.999803
0.999689
0.999516
0.999253
0.998862
0.998286
0.997448
0.996245
0.994539
0.992155
0.988866
0.984391
0.978389
0.970454
0.960117
0.946855
0.930101
0.909272
0.883798
0.853168
0.816976
0.774982
0.727166
0.67378
0.615387
0.552884
0.487488
0.420701
0.354237
0.289914
0.22953
0.174716
0.126804
0.0867104
0.0548634
0.0311862
0.0151346
0.00572625
0.00144418
0.000190834
9.70304e-06
1.37015e-07
4.00629e-10
1.90873e-13
1.72904e-17
1.5424e-21
1.35842e-25
1.18457e-29
1.0259e-33
8.84971e-38
7.62272e-42
6.56815e-46
5.6676e-50
4.89949e-54
4.24276e-58
3.67882e-62
3.19232e-66
2.771e-70
2.40517e-74
2.08712e-78
1.81056e-82
1.57017e-86
1.3614e-90
1.18023e-94
1.02311e-98
8.8691e-103
7.68874e-107
6.66582e-111
5.77926e-115
5.01079e-119
4.34459e-123
3.76699e-127
3.26617e-131
2.8319e-135
2.45535e-139
2.12884e-143
1.84573e-147
1.60027e-151
1.38744e-155
1.20292e-159
1.04293e-163
9.04224e-168
7.83964e-172
6.79697e-176
5.89296e-180
5.10918e-184
4.42963e-188
3.84046e-192
3.32964e-196
2.88676e-200
2.50278e-204
2.16987e-208
1.88123e-212
1.63099e-216
1.41403e-220
1.22593e-224
1.06285e-228
9.2146e-233
7.98877e-237
6.926e-241
6.0046e-245
5.20577e-249
4.5132e-253
3.91275e-257
3.39219e-261
2.94087e-265
2.5496e-269
2.21037e-273
1.91628e-277
1.66131e-281
1.44027e-285
1.24863e-289
1.08248e-293
9.38447e-298
8.13573e-302
7.05314e-306
6.11459e-310
5.30092e-314
4.59551e-318
3.95253e-322
0
0
0
0
0
0
0
0
0
0
0
0
0
0
0
0
0
0
0
0
0
0
0
0
0
0
0
0
0
0
0
0
0
0
0
0
0
0
0
0
0
0
0
0
0
0
0
0
0
0
0
0
0
0
0
0
0
0
0
0
0
0
)
;

boundaryField
{
    sides
    {
        type            zeroGradient;
    }
    empty
    {
        type            empty;
    }
}


// ************************************************************************* //
