/*--------------------------------*- C++ -*----------------------------------*\
| =========                 |                                                 |
| \\      /  F ield         | OpenFOAM: The Open Source CFD Toolbox           |
|  \\    /   O peration     | Version:  2312                                  |
|   \\  /    A nd           | Website:  www.openfoam.com                      |
|    \\/     M anipulation  |                                                 |
\*---------------------------------------------------------------------------*/
FoamFile
{
    version     2.0;
    format      ascii;
    arch        "LSB;label=32;scalar=64";
    class       volScalarField;
    location    "2.9";
    object      T;
}
// * * * * * * * * * * * * * * * * * * * * * * * * * * * * * * * * * * * * * //

dimensions      [0 0 0 1 0 0 0];

internalField   nonuniform List<scalar> 
1000
(
0
0
0
0
0
0
1.97626e-323
-2.07508e-322
2.00097e-321
-2.02023e-320
2.03105e-319
-2.03539e-318
2.03364e-317
-2.02577e-316
2.01181e-315
-1.99187e-314
1.96612e-313
-1.93477e-312
1.89809e-311
-1.85638e-310
1.81001e-309
-1.75934e-308
1.70479e-307
-1.64681e-306
1.58585e-305
-1.52238e-304
1.45687e-303
-1.38981e-302
1.32167e-301
-1.2529e-300
1.18395e-299
-1.11524e-298
1.04718e-297
-9.80136e-297
9.14448e-296
-8.50426e-295
7.8834e-294
-7.28429e-293
6.70892e-292
-6.15894e-291
5.63565e-290
-5.13998e-289
4.67255e-288
-4.23368e-287
3.8234e-286
-3.44147e-285
3.08743e-284
-2.7606e-283
2.46015e-282
-2.18506e-281
1.93422e-280
-1.70642e-279
1.50037e-278
-1.31473e-277
1.14815e-276
-9.99255e-276
8.667e-275
-7.49152e-274
6.4532e-273
-5.53961e-272
4.7389e-271
-4.03985e-270
3.43192e-269
-2.90528e-268
2.45083e-267
-2.06019e-266
1.7257e-265
-1.4404e-264
1.19799e-263
-9.92828e-263
8.19854e-262
-6.74586e-261
5.53057e-260
-4.51782e-259
3.67714e-258
-2.98199e-257
2.40942e-256
-1.93965e-255
1.55573e-254
-1.24319e-253
9.89752e-253
-7.8505e-252
6.20359e-251
-4.88381e-250
3.83034e-249
-2.99276e-248
2.32947e-247
-1.80629e-246
1.39526e-245
-1.07364e-244
8.22966e-244
-6.28385e-243
4.77949e-242
-3.62112e-241
2.73277e-240
-2.05426e-239
1.53812e-238
-1.14711e-237
8.52102e-237
-6.30435e-236
4.64564e-235
-3.40958e-234
2.49228e-233
-1.81438e-232
1.31548e-231
-9.49863e-231
6.83044e-230
-4.89148e-229
3.48841e-228
-2.47743e-227
1.75209e-226
-1.2339e-225
8.65305e-225
-6.04243e-224
4.20146e-223
-2.90888e-222
2.00531e-221
-1.37643e-220
9.40675e-220
-6.40068e-219
4.33616e-218
-2.9246e-217
1.96382e-216
-1.31281e-215
8.73688e-215
-5.78835e-214
3.81757e-213
-2.50637e-212
1.63801e-211
-1.06559e-210
6.90013e-210
-4.44741e-209
2.85317e-208
-1.82184e-207
1.15782e-206
-7.3233e-206
4.61e-205
-2.88808e-204
1.80061e-203
-1.11717e-202
6.89759e-202
-4.2378e-201
2.59082e-200
-1.57606e-199
9.53968e-199
-5.74524e-198
3.44257e-197
-2.05231e-196
1.21723e-195
-7.18225e-195
4.2159e-194
-2.46177e-193
1.42994e-192
-8.26197e-192
4.74822e-191
-2.71421e-190
1.54314e-189
-8.72563e-189
4.90687e-188
-2.74416e-187
1.52614e-186
-8.43995e-186
4.64119e-185
-2.53771e-184
1.37962e-183
-7.45699e-183
4.00712e-182
-2.14064e-181
1.13679e-180
-6.00091e-180
3.14871e-179
-1.64213e-178
8.51163e-178
-4.38459e-177
2.24455e-176
-1.1418e-175
5.77147e-175
-2.89861e-174
1.44635e-173
-7.16985e-173
3.53078e-172
-1.72713e-171
8.39159e-171
-4.04945e-170
1.94065e-169
-9.2356e-169
4.36431e-168
-2.04768e-167
9.53827e-167
-4.4106e-166
2.02446e-165
-9.22276e-165
4.16977e-164
-1.87076e-163
8.32787e-163
-3.67799e-162
1.61139e-161
-7.00244e-161
3.01791e-160
-1.28977e-159
5.46526e-159
-2.29582e-158
9.55939e-158
-3.94475e-157
1.613e-156
-6.53428e-156
2.62199e-155
-1.04196e-154
4.09982e-154
-1.59691e-153
6.15592e-153
-2.34799e-152
8.85879e-152
-3.30522e-151
1.2191e-150
-4.44373e-150
1.60016e-149
-5.69002e-149
1.99714e-148
-6.91569e-148
2.36137e-147
-7.94566e-147
2.63294e-146
-8.58539e-146
2.75236e-145
-8.6662e-145
2.67674e-144
-8.0986e-144
2.39594e-143
-6.916e-143
1.94238e-142
-5.28823e-142
1.38862e-141
-3.49109e-141
8.30744e-141
-1.83456e-140
3.61354e-140
-5.71947e-140
4.20067e-140
1.74355e-139
-1.13499e-138
4.38029e-138
-1.37359e-137
3.73268e-137
-8.84977e-137
1.76466e-136
-2.55278e-136
4.434e-137
1.47478e-135
-7.21139e-135
2.39593e-134
-6.38855e-134
1.37941e-133
-2.15331e-133
8.1652e-134
1.03673e-132
-5.22649e-132
1.67732e-131
-4.1087e-131
7.39438e-131
-6.0733e-131
-2.12226e-130
1.32467e-129
-4.40502e-129
1.05479e-128
-1.70713e-128
5.2314e-129
8.76682e-128
-4.05934e-127
1.15076e-126
-2.22698e-126
1.92272e-126
6.27515e-126
-3.82146e-125
1.16863e-124
-2.33456e-124
2.03383e-124
6.64446e-124
-3.96002e-123
1.15884e-122
-2.08818e-122
9.01236e-123
9.66971e-122
-4.33962e-121
1.07223e-120
-1.39786e-120
-1.39158e-120
1.40815e-119
-4.45579e-119
7.93523e-119
-1.77686e-119
-4.30028e-118
1.69899e-117
-3.55409e-117
2.38279e-117
1.34671e-116
-6.33035e-116
1.4302e-115
-1.16432e-115
-4.73459e-115
2.3816e-114
-5.38536e-114
3.98449e-114
1.94288e-113
-9.09385e-113
1.89685e-112
-8.26284e-113
-8.84394e-112
3.44993e-111
-6.00849e-111
-1.30451e-111
4.08498e-110
-1.24398e-109
1.52051e-109
2.68907e-109
-1.77415e-108
3.96099e-108
-1.66719e-108
-1.87247e-107
6.77639e-107
-9.46775e-107
-1.19651e-106
9.2903e-106
-2.06348e-105
5.69236e-106
1.06563e-104
-3.45808e-104
3.68941e-104
9.95533e-104
-5.04022e-103
8.39004e-103
6.26494e-103
-6.71757e-102
1.49089e-101
-1.31383e-102
-8.4332e-101
2.35813e-100
-1.36631e-100
-1.02132e-99
3.49583e-99
-3.16501e-99
-1.22333e-98
4.99514e-98
-5.60487e-98
-1.49197e-97
6.99915e-97
-8.72461e-97
-1.91062e-96
9.71599e-96
-1.24518e-95
-2.62642e-95
1.3419e-94
-1.64539e-94
-3.88059e-94
1.84118e-93
-1.98722e-93
-6.03962e-93
2.49187e-92
-2.09016e-92
-9.60763e-92
3.28387e-91
-1.62311e-91
-1.51765e-90
4.12903e-90
-4.96626e-92
-2.32376e-89
4.79069e-89
3.38219e-89
-3.37491e-88
4.79802e-88
9.51909e-88
-4.5371e-87
3.38661e-87
1.89189e-86
-5.4413e-86
-4.40157e-87
3.1075e-85
-5.39e-85
-7.57674e-85
4.32631e-84
-3.37737e-84
-1.80521e-83
4.94242e-83
1.60897e-83
-2.98437e-82
4.0189e-82
9.83888e-82
-3.77336e-81
5.81947e-82
1.96783e-80
-3.34044e-80
-5.64085e-80
2.65681e-79
-8.54851e-80
-1.31424e-78
2.34243e-78
3.79121e-78
-1.78875e-77
4.06266e-78
9.06255e-77
-1.41912e-76
-3.00233e-76
1.14417e-75
1.58399e-76
-6.29567e-75
6.84141e-75
2.52464e-74
-6.60558e-74
-5.72468e-74
4.14434e-73
-1.60286e-73
-2.00927e-72
3.00255e-72
7.3951e-72
-2.33913e-71
-1.50628e-71
1.37263e-70
-5.45776e-71
-6.6369e-70
9.0071e-70
2.63024e-69
-7.00749e-69
-7.54575e-69
4.26197e-68
3.75427e-69
-2.22666e-67
1.55396e-67
1.025e-66
-1.55896e-66
-4.12042e-66
1.0862e-65
1.36171e-65
-6.43364e-65
-2.8012e-65
3.44e-64
-6.44388e-65
-1.70315e-63
1.27785e-63
7.89949e-63
-1.05276e-62
-3.44532e-62
6.92701e-62
1.40857e-61
-4.07862e-61
-5.32992e-61
2.24327e-60
1.8068e-60
-1.17801e-59
-4.99957e-60
5.98561e-59
7.01452e-60
-2.97009e-58
4.1206e-59
1.44933e-57
-5.13195e-58
-6.99436e-57
3.72775e-57
3.35379e-56
-2.26531e-56
-1.60395e-55
1.25001e-55
7.67362e-55
-6.4576e-55
-3.67992e-54
3.16216e-54
1.7706e-53
-1.47177e-53
-8.54616e-53
6.47584e-53
4.13265e-52
-2.6492e-52
-1.99744e-51
9.6749e-52
9.61765e-51
-2.79843e-51
-4.59406e-50
2.88423e-51
2.16589e-49
4.35425e-50
-1.00155e-48
-5.06811e-49
4.50677e-48
3.9011e-48
-1.95213e-47
-2.55322e-47
8.0075e-47
1.51583e-46
-3.02263e-46
-8.36142e-46
9.86497e-46
4.32229e-45
-2.26885e-45
-2.09397e-44
-1.3421e-45
9.4369e-44
6.23586e-44
-3.88631e-43
-5.28429e-43
1.40546e-42
3.3235e-42
-4.00323e-42
-1.77362e-41
4.90881e-42
8.27808e-41
4.1937e-41
-3.3447e-40
-4.56407e-40
1.10086e-39
2.94656e-39
-2.29288e-39
-1.49749e-38
-3.50136e-39
6.22598e-38
7.40049e-38
-1.99887e-37
-5.17702e-37
3.48565e-37
2.59459e-36
1.19038e-36
-9.91291e-36
-1.57858e-35
2.51949e-35
9.55859e-35
8.45845e-37
-4.05901e-34
-4.79008e-34
1.14964e-33
3.41462e-33
-6.55249e-34
-1.51818e-32
-1.64623e-32
4.24207e-32
1.24034e-31
-1.28018e-32
-5.32701e-31
-6.70986e-31
1.27872e-30
4.55424e-30
1.18271e-30
-1.70006e-29
-2.95364e-29
2.59902e-29
1.59055e-28
1.34269e-28
-4.39714e-28
-1.22231e-27
-1.38292e-28
4.69711e-27
8.07326e-27
-5.71998e-27
-4.15786e-26
-4.60886e-26
8.78427e-26
3.31093e-25
2.19764e-25
-9.23206e-25
-2.47595e-24
-7.58229e-25
8.31189e-24
1.79313e-23
3.81229e-25
-6.86974e-23
-1.29024e-22
2.24397e-23
5.37507e-22
9.41359e-22
-2.34143e-22
-4.03567e-21
-7.04295e-21
1.28733e-21
2.91165e-20
5.39506e-20
8.4683e-22
-1.99686e-19
-4.17037e-19
-1.30985e-19
1.26612e-18
3.17476e-18
2.15414e-18
-6.97059e-18
-2.30542e-17
-2.52901e-17
2.75838e-17
1.52964e-16
2.4481e-16
6.11808e-18
-8.61567e-16
-2.00555e-15
-1.59314e-15
3.37296e-15
1.35599e-14
2.03182e-14
1.09168e-15
-6.82231e-14
-1.69181e-13
-1.76946e-13
1.48194e-13
9.74587e-13
1.9228e-12
1.50603e-12
-2.71899e-12
-1.20084e-11
-2.16062e-11
-1.54562e-11
3.2009e-11
1.34992e-10
2.48977e-10
2.13951e-10
-2.47144e-10
-1.36106e-09
-2.86621e-09
-3.37067e-09
3.33862e-11
1.09e-08
3.00073e-08
4.87809e-08
4.15436e-08
-3.65745e-08
-2.33435e-07
-5.50231e-07
-8.5139e-07
-7.54809e-07
4.24521e-07
3.53527e-06
9.0567e-06
1.59893e-05
2.01562e-05
1.23084e-05
-2.28904e-05
-0.000105022
-0.000250317
-0.00045484
-0.000665256
-0.000735545
-0.000371178
0.000933165
0.00395099
0.00976043
0.0197414
0.0355165
0.0588253
0.0913339
0.134394
0.188786
0.254482
0.33049
0.414801
0.504487
0.595933
0.685192
0.76841
0.842248
0.904243
0.953044
0.988486
1.0115
1.02389
1.028
1.02637
1.0214
1.01511
1.00899
1.00396
1.00041
0.998356
0.997536
0.997575
0.998092
0.99877
0.999396
0.99986
1.00014
1.00025
1.00024
1.00018
1.00011
1.00004
0.999999
0.999978
0.999973
0.999978
0.999987
0.999995
1
1
1
1
1
1
1
1
1
1
1
1
1
1
1
1
1
1
1
1
1
1
1
1
1
1
1
1
1
1
1
1
1
1
1
1
1
1
1
1
0.999996
0.999991
0.999984
0.99998
0.999988
1.00002
1.00011
1.00025
1.00045
1.00067
1.00074
1.00037
0.999067
0.996049
0.99024
0.980259
0.964484
0.941175
0.908666
0.865606
0.811214
0.745518
0.66951
0.585199
0.495513
0.404067
0.314808
0.23159
0.157752
0.0957567
0.0469559
0.0115141
-0.0115018
-0.0238923
-0.0280036
-0.0263729
-0.0214031
-0.0151129
-0.00899078
-0.00395564
-0.00041019
0.00164407
0.0024638
0.00242457
0.0019085
0.00123044
0.000603904
0.000139536
-0.000135053
-0.000246078
-0.000244691
-0.000184579
-0.000108445
-4.28648e-05
7.80648e-07
2.20916e-05
2.66062e-05
2.15594e-05
1.3168e-05
5.46021e-06
2.49497e-07
-2.27284e-06
-2.78151e-06
-2.18751e-06
-1.253e-06
-4.42579e-07
6.19584e-08
2.69415e-07
2.76328e-07
1.90407e-07
9.05395e-08
1.70356e-08
-2.05633e-08
-2.98584e-08
-2.36818e-08
-1.29124e-08
-3.87607e-09
1.2785e-09
2.97719e-09
2.61806e-09
1.52637e-09
5.24325e-10
-7.56989e-11
-2.90292e-10
-2.68226e-10
-1.58532e-10
-5.48868e-11
6.97933e-12
2.85567e-11
2.58919e-11
1.47409e-11
4.64187e-12
-1.06723e-12
-2.81589e-12
-2.34648e-12
-1.22034e-12
-3.01633e-13
1.64122e-13
2.68903e-13
1.95878e-13
8.73273e-14
1.10934e-14
-2.12166e-14
-2.38416e-14
-1.45894e-14
-5.01753e-15
5.46939e-16
2.27265e-15
1.88519e-15
9.21628e-16
1.79825e-16
-1.56419e-16
-2.02276e-16
-1.27274e-16
-4.43917e-17
3.78673e-18
1.83065e-17
1.4811e-17
6.84368e-18
1.04022e-18
-1.36049e-18
-1.5173e-18
-8.5948e-19
-2.41635e-19
7.26941e-20
1.39769e-19
9.48874e-20
3.5243e-20
-6.3654e-22
-1.17021e-20
-9.54122e-21
-4.23631e-21
-5.158e-22
8.94214e-22
8.92613e-22
4.52782e-22
9.40322e-23
-6.22812e-23
-7.88825e-23
-4.45311e-23
-1.18539e-23
3.9247e-24
6.66613e-24
4.10913e-24
1.26402e-24
-2.2041e-25
-5.4444e-25
-3.60216e-25
-1.21201e-25
1.07689e-26
4.33759e-26
3.02533e-26
1.07352e-26
-4.49068e-28
-3.39709e-27
-2.44818e-27
-8.90459e-28
1.80541e-29
2.62946e-28
1.9155e-28
6.96509e-29
-1.30113e-30
-2.01652e-29
-1.45135e-29
-5.15043e-30
1.82337e-31
1.53119e-30
1.06475e-30
3.59644e-31
-2.57971e-32
-1.1473e-31
-7.55058e-32
-2.35944e-32
3.12872e-33
8.43824e-33
5.15934e-33
1.43887e-33
-3.30535e-34
-6.05381e-34
-3.38116e-34
-7.98761e-35
3.12492e-35
4.2086e-35
2.11147e-35
3.85682e-36
-2.69397e-36
-2.81633e-36
-1.24507e-36
-1.42011e-37
2.14265e-37
1.80174e-37
6.83803e-38
1.48073e-39
-1.58286e-38
-1.09369e-38
-3.41739e-39
3.93365e-40
1.08958e-39
6.24137e-40
1.48221e-40
-5.26271e-41
-6.99129e-41
-3.30579e-41
-4.88278e-42
4.66631e-42
4.17123e-42
1.59167e-42
4.49125e-44
-3.43403e-43
-2.30044e-43
-6.68985e-44
1.07347e-44
2.22467e-44
1.15956e-44
2.20908e-45
-1.26166e-45
-1.29437e-45
-5.22741e-46
-3.28936e-47
9.75197e-47
6.78725e-47
2.01037e-47
-2.77454e-48
-6.1867e-48
-3.17855e-48
-5.74339e-49
3.51346e-49
3.40196e-49
1.29359e-49
3.87921e-51
-2.58679e-50
-1.64171e-50
-4.25126e-51
1.00141e-51
1.51402e-51
6.86923e-52
8.39863e-53
-9.68727e-53
-7.51431e-53
-2.37491e-53
1.93166e-54
6.14312e-54
3.18818e-54
5.72457e-55
-3.33368e-55
-3.12927e-55
-1.11958e-55
1.72923e-58
2.32369e-56
1.33229e-56
2.86569e-57
-1.09023e-57
-1.20752e-57
-4.65255e-58
-1.89118e-59
8.35189e-59
5.10106e-59
1.1933e-59
-3.53402e-60
-4.37191e-60
-1.74071e-60
-1.01141e-61
2.89328e-61
1.80764e-61
4.30521e-62
-1.17915e-62
-1.49583e-62
-5.92226e-63
-3.30063e-64
9.726e-64
5.95544e-64
1.3627e-64
-4.09238e-65
-4.84542e-65
-1.83796e-65
-5.54921e-67
2.84037e-66
)
;

boundaryField
{
    sides
    {
        type            zeroGradient;
    }
    empty
    {
        type            empty;
    }
}


// ************************************************************************* //
