/*--------------------------------*- C++ -*----------------------------------*\
| =========                 |                                                 |
| \\      /  F ield         | OpenFOAM: The Open Source CFD Toolbox           |
|  \\    /   O peration     | Version:  2312                                  |
|   \\  /    A nd           | Website:  www.openfoam.com                      |
|    \\/     M anipulation  |                                                 |
\*---------------------------------------------------------------------------*/
FoamFile
{
    version     2.0;
    format      ascii;
    arch        "LSB;label=32;scalar=64";
    class       volScalarField;
    location    "0.3";
    object      T;
}
// * * * * * * * * * * * * * * * * * * * * * * * * * * * * * * * * * * * * * //

dimensions      [0 0 0 1 0 0 0];

internalField   nonuniform List<scalar> 
1000
(
0
0
0
0
0
0
0
0
0
0
0
0
0
0
0
0
0
0
0
0
0
-9.88131e-324
1.23516e-322
-1.45749e-321
1.6818e-320
-1.92982e-319
2.21056e-318
-2.5278e-317
2.8857e-316
-3.2887e-315
3.74163e-314
-4.2497e-313
4.81855e-312
-5.4542e-311
6.16313e-310
-6.95225e-309
7.82891e-308
-8.8009e-307
9.87644e-306
-1.10642e-304
1.23732e-303
-1.3813e-302
1.53934e-301
-1.71244e-300
1.90167e-299
-2.10809e-298
2.33278e-297
-2.57684e-296
2.84139e-295
-3.12751e-294
3.4363e-293
-3.76882e-292
4.1261e-291
-4.50911e-290
4.91879e-289
-5.35598e-288
5.82144e-287
-6.31585e-286
6.83974e-285
-7.39355e-284
7.97755e-283
-8.59185e-282
9.23639e-281
-9.91093e-280
1.0615e-278
-1.1348e-277
1.2109e-276
-1.28969e-275
1.37103e-274
-1.45476e-273
1.54069e-272
-1.62863e-271
1.71832e-270
-1.8095e-269
1.9019e-268
-1.9952e-267
2.08906e-266
-2.18314e-265
2.27706e-264
-2.37044e-263
2.46287e-262
-2.55394e-261
2.64322e-260
-2.73028e-259
2.81468e-258
-2.896e-257
2.9738e-256
-3.04766e-255
3.11717e-254
-3.18194e-253
3.24158e-252
-3.29575e-251
3.34412e-250
-3.38638e-249
3.42227e-248
-3.45156e-247
3.47405e-246
-3.48958e-245
3.49805e-244
-3.49937e-243
3.49352e-242
-3.48052e-241
3.46042e-240
-3.43333e-239
3.39939e-238
-3.35879e-237
3.31175e-236
-3.25856e-235
3.19949e-234
-3.13489e-233
3.06511e-232
-2.99055e-231
2.91161e-230
-2.82873e-229
2.74233e-228
-2.65289e-227
2.56086e-226
-2.46669e-225
2.37086e-224
-2.27381e-223
2.176e-222
-2.07786e-221
1.97981e-220
-1.88224e-219
1.78555e-218
-1.6901e-217
1.5962e-216
-1.50418e-215
1.4143e-214
-1.32683e-213
1.24198e-212
-1.15994e-211
1.08088e-210
-1.00493e-209
9.32197e-209
-8.62763e-208
7.96677e-207
-7.3397e-206
6.74645e-205
-6.18686e-204
5.66058e-203
-5.16706e-202
4.70559e-201
-4.27534e-200
3.87533e-199
-3.5045e-198
3.16169e-197
-2.84567e-196
2.55516e-195
-2.28885e-194
2.0454e-193
-1.82347e-192
1.62171e-191
-1.4388e-190
1.27344e-189
-1.12434e-188
9.90282e-188
-8.70078e-187
7.62591e-186
-6.66739e-185
5.81496e-184
-5.05896e-183
4.39031e-182
-3.80054e-181
3.28177e-180
-2.82669e-179
2.42859e-178
-2.08128e-177
1.77912e-176
-1.51695e-175
1.29011e-174
-1.09438e-173
9.25961e-173
-7.81437e-172
6.57762e-171
-5.52221e-170
4.62406e-169
-3.86184e-168
3.2168e-167
-2.67243e-166
2.21431e-165
-1.82984e-164
1.5081e-163
-1.23961e-162
1.01618e-161
-8.30777e-161
6.77363e-160
-5.5078e-159
4.46632e-158
-3.61186e-157
2.91285e-156
-2.34265e-155
1.87885e-154
-1.50269e-153
1.19849e-152
-9.53198e-152
7.55978e-151
-5.97873e-150
4.71495e-149
-3.70774e-148
2.90737e-147
-2.27324e-146
1.77231e-145
-1.37778e-144
1.06796e-143
-8.25407e-143
6.36076e-142
-4.88736e-141
3.74419e-140
-2.85993e-139
2.17801e-138
-1.65374e-137
1.25191e-136
-9.44871e-136
7.10979e-135
-5.33363e-134
3.989e-133
-2.97424e-132
2.21081e-131
-1.63827e-130
1.21024e-129
-8.91267e-129
6.5431e-128
-4.78844e-127
3.49329e-126
-2.54038e-125
1.84153e-124
-1.33067e-123
9.58449e-123
-6.88121e-122
4.92439e-121
-3.51258e-120
2.49736e-119
-1.76973e-118
1.24997e-117
-8.79941e-117
6.1739e-116
-4.3173e-115
3.00888e-114
-2.08992e-113
1.44671e-112
-9.98045e-112
6.86169e-111
-4.70129e-110
3.20996e-109
-2.1841e-108
1.48091e-107
-1.00059e-106
6.73683e-106
-4.51973e-105
3.0215e-104
-2.01269e-103
1.33588e-102
-8.83457e-102
5.82136e-101
-3.82187e-100
2.49995e-99
-1.62923e-98
1.05784e-97
-6.84285e-97
4.40985e-96
-2.83121e-95
1.81081e-94
-1.15377e-93
7.32315e-93
-4.63023e-92
2.91625e-91
-1.82958e-90
1.14335e-89
-7.11692e-89
4.41249e-88
-2.72486e-87
1.67596e-86
-1.02667e-85
6.26379e-85
-3.80602e-84
2.30315e-83
-1.38797e-82
8.32984e-82
-4.97826e-81
2.96274e-80
-1.75579e-79
1.0361e-78
-6.08801e-78
3.56186e-77
-2.0749e-76
1.20343e-75
-6.94928e-75
3.99521e-74
-2.2867e-73
1.30297e-72
-7.39104e-72
4.17356e-71
-2.34599e-70
1.31265e-69
-7.31082e-69
4.05284e-68
-2.23623e-67
1.22807e-66
-6.71223e-66
3.65116e-65
-1.97652e-64
1.06479e-63
-5.70824e-63
3.04511e-62
-1.6164e-61
8.53736e-61
-4.48655e-60
2.34584e-59
-1.2203e-58
6.31535e-58
-3.25144e-57
1.66526e-56
-8.48402e-56
4.29946e-55
-2.16721e-54
1.08654e-53
-5.41787e-53
2.68677e-52
-1.32504e-51
6.49843e-51
-3.16917e-50
1.53681e-49
-7.40992e-49
3.55223e-48
-1.69302e-47
8.02188e-47
-3.77849e-46
1.76915e-45
-8.23371e-45
3.80876e-44
-1.75108e-43
8.00086e-43
-3.63288e-42
1.63917e-41
-7.34898e-41
3.27366e-40
-1.44883e-39
6.37016e-39
-2.78229e-38
1.2071e-37
-5.20173e-37
2.22628e-36
-9.4626e-36
3.99399e-35
-1.67393e-34
6.96576e-34
-2.87783e-33
1.1803e-32
-4.80521e-32
1.94174e-31
-7.78737e-31
3.09936e-30
-1.22404e-29
4.79642e-29
-1.86466e-28
7.19118e-28
-2.75089e-27
1.04369e-26
-3.92694e-26
1.46511e-25
-5.41963e-25
1.98749e-24
-7.22472e-24
2.60296e-23
-9.2937e-23
3.28797e-22
-1.15246e-21
4.00151e-21
-1.37613e-20
4.68672e-20
-1.58046e-19
5.27642e-19
-1.74366e-18
5.70269e-18
-1.84551e-17
5.90872e-17
-1.87124e-16
5.86058e-16
-1.81484e-15
5.5556e-15
-1.68083e-14
5.02482e-14
-1.48393e-13
4.32813e-13
-1.24642e-12
3.54318e-12
-9.93941e-12
2.75067e-11
-7.50746e-11
2.02014e-10
-5.35744e-10
1.39979e-09
-3.60188e-09
9.12398e-09
-2.27428e-08
5.57582e-08
-1.34391e-07
3.1828e-07
-7.40259e-07
1.68982e-06
-3.78359e-06
8.30386e-06
-1.78505e-05
3.75548e-05
-7.72589e-05
0.000155269
-0.000304522
0.000582161
-0.00108341
0.00195989
-0.00344063
0.00585041
-0.00961421
0.0152295
-0.0231818
0.0337773
-0.0468835
0.0616013
-0.0759607
0.0868104
-0.0901354
0.0820094
-0.0602071
0.0261198
0.0138754
-0.048777
0.0660098
-0.0569977
0.0231965
0.0211838
-0.0534454
0.0541035
-0.0207046
-0.0262255
0.053364
-0.0385263
-0.00819042
0.0472042
-0.0416165
-0.00525562
0.0464289
-0.0362158
-0.0161268
0.0489339
-0.0191798
-0.0366411
0.0415906
0.0146366
-0.0494906
0.00562271
0.0490093
-0.0197106
-0.0468391
0.0273255
0.0476013
-0.0286933
-0.0536516
0.0220016
0.0645442
-0.00209656
-0.073839
-0.0376159
0.0623438
0.0930144
0.00539076
-0.113582
-0.137439
-0.0112135
0.224746
0.486106
0.704356
0.852267
0.936188
0.976521
0.992899
0.998402
0.999838
1.00007
1.00005
1.00002
1
1
1
1
1
1
1
1
1
1
1
1
1
1
1
1
1
1
1
0.999998
1
0.999992
1.00002
0.999962
1.00008
0.999845
1.0003
0.999418
1.00108
0.99804
1.00344
0.99415
1.00961
0.98477
1.02318
0.966223
1.04688
0.938399
1.07596
0.91319
1.09014
0.917991
1.06021
0.97388
0.986125
1.04878
0.93399
1.057
0.976804
0.978816
1.05345
0.945897
1.0207
1.02623
0.946636
1.03853
1.00819
0.952796
1.04162
1.00526
0.953571
1.03622
1.01613
0.951066
1.01918
1.03664
0.958409
0.985363
1.04949
0.994377
0.950991
1.01971
1.04684
0.972674
0.952399
1.02869
1.05365
0.977998
0.935456
1.0021
1.07384
1.03762
0.937656
0.906986
0.994609
1.11358
1.13744
1.01121
0.775254
0.513894
0.295644
0.147733
0.0638123
0.0234791
0.00710051
0.00159832
0.000162316
-6.74198e-05
-4.83214e-05
-1.72826e-05
-3.95147e-06
-3.81907e-07
1.36407e-07
8.38348e-08
2.37708e-08
3.49071e-09
-2.46102e-10
-3.08936e-10
-9.37278e-11
-1.38488e-11
7.49125e-13
1.01248e-12
2.80178e-13
3.34729e-14
-4.1953e-15
-2.90001e-15
-6.33228e-16
-4.18523e-17
1.75769e-17
6.6346e-18
9.88292e-19
-2.73004e-20
-4.83385e-20
-1.09774e-20
-7.60559e-22
2.46792e-22
8.76874e-23
1.11528e-23
-6.74713e-25
-5.54608e-25
-9.90575e-26
-2.35777e-27
2.86728e-27
6.85235e-28
4.86791e-29
-1.20851e-29
-3.98543e-30
-4.19119e-31
3.93442e-32
2.02184e-32
2.70702e-33
-7.59613e-35
-9.14688e-35
-1.46914e-35
-1.39292e-37
3.74809e-37
7.01348e-38
2.38976e-39
-1.40835e-39
-3.01848e-40
-1.55036e-41
4.90543e-42
1.18947e-42
7.59685e-44
-1.60034e-44
-4.33775e-45
-3.16015e-46
4.941e-47
1.47533e-47
1.16556e-48
-1.45869e-49
-4.70665e-50
-3.89397e-51
4.15718e-52
1.41439e-52
1.19263e-53
-1.15238e-54
-4.01578e-55
-3.37294e-56
3.12026e-57
1.07947e-57
8.84649e-59
-8.25511e-60
-2.7507e-60
-2.15656e-61
2.12731e-62
6.64887e-63
4.88887e-64
-5.31177e-65
-1.52475e-65
-1.02941e-66
1.27762e-67
3.3167e-68
2.00659e-69
-2.94436e-70
-6.8401e-71
-3.59753e-72
6.47328e-73
1.33647e-73
5.86114e-75
-1.35335e-75
-2.4717e-76
-8.47209e-78
2.68464e-78
4.32191e-79
1.02758e-80
-5.04572e-81
-7.13471e-82
-8.68617e-84
8.97682e-84
1.10992e-84
-9.38211e-88
-1.51092e-86
-1.62307e-87
2.56587e-89
2.40504e-89
2.22326e-90
-7.46737e-92
-3.61945e-92
-2.83783e-93
1.58024e-94
5.14843e-95
3.34761e-96
-2.8416e-97
-6.91896e-98
-3.59776e-99
4.56706e-100
8.77968e-101
3.42578e-102
-6.71261e-103
-1.05096e-103
-2.70313e-105
9.13467e-106
1.18509e-106
1.37991e-108
-1.15947e-108
-1.25615e-109
4.82448e-112
1.37927e-111
1.24742e-112
-2.70461e-114
-1.54253e-114
-1.15449e-115
5.01566e-117
1.62526e-117
9.87127e-119
-7.10771e-120
-1.61545e-120
-7.6761e-122
8.7034e-123
1.51584e-123
5.25769e-125
-9.61597e-126
-1.34288e-126
-2.92352e-128
9.7839e-129
1.12255e-129
9.27195e-132
-9.27182e-132
-8.84225e-133
5.73871e-135
8.24093e-135
6.54657e-136
-1.53125e-137
-6.9014e-138
-4.53626e-139
1.99076e-140
5.4629e-141
2.92034e-142
-2.05993e-143
-4.09646e-144
-1.72395e-145
1.87057e-146
2.91467e-147
9.09237e-149
-1.54716e-149
-1.9699e-150
-4.02682e-152
1.18723e-152
1.26553e-153
1.2011e-155
-8.54252e-156
-7.73038e-157
1.55565e-159
5.80307e-159
4.48936e-160
-6.50465e-162
-3.73951e-162
-2.47721e-163
7.05635e-165
2.29402e-165
1.29719e-166
-5.80683e-168
-1.34344e-168
-6.43267e-170
4.14737e-171
7.52821e-172
3.01041e-173
-2.69283e-174
-4.04481e-175
-1.32204e-176
1.62459e-177
2.08758e-178
5.39571e-180
-9.21958e-181
-1.03679e-181
-2.01046e-183
4.96004e-184
4.9634e-185
6.58688e-187
-2.54322e-187
-2.29437e-188
-1.71354e-190
1.24771e-190
1.0259e-191
2.04802e-194
-5.87469e-194
-4.44525e-195
1.37999e-197
2.66108e-197
1.87005e-198
-1.45203e-200
-1.16198e-200
-7.65266e-202
9.09897e-204
4.89933e-204
3.05219e-205
-4.69005e-207
-1.99743e-207
-1.18868e-208
2.14787e-210
7.88316e-211
4.5282e-212
-9.00181e-214
-3.01448e-214
-1.68981e-215
3.49748e-217
1.11761e-217
6.18439e-219
-1.26545e-220
-4.01882e-221
-2.2213e-222
4.25646e-224
1.40178e-224
7.83172e-226
-1.31897e-227
-4.74164e-228
-2.70964e-229
3.68346e-231
1.55447e-231
9.19225e-233
-8.77849e-235
-4.93375e-235
-3.05387e-236
1.48313e-238
1.51362e-238
9.91976e-240
3.39067e-243
-4.47805e-242
-3.14448e-243
-1.862e-245
1.27335e-245
9.70637e-247
1.1446e-248
-3.46338e-249
-2.9106e-250
-5.21193e-252
8.94542e-253
8.45578e-254
2.05197e-255
-2.16877e-256
-2.37261e-257
-7.3395e-259
4.83538e-260
6.40604e-261
2.43716e-262
-9.50158e-264
-1.65658e-264
-7.59449e-266
1.46319e-267
4.07721e-268
2.23278e-269
-8.48972e-272
-9.46384e-272
-6.20657e-273
-5.64235e-275
2.04159e-275
1.63074e-276
3.34595e-278
-3.98552e-279
-4.03923e-280
-1.26575e-281
6.63474e-283
9.37953e-284
3.97634e-285
-7.74968e-287
-2.0215e-287
-1.10816e-288
-1.68655e-291
3.96954e-291
2.80482e-292
4.87587e-294
-6.83579e-295
-6.49172e-296
-2.02237e-297
9.33186e-299
1.36868e-299
6.14459e-301
-6.02288e-303
-2.58679e-303
-1.57884e-304
-1.8719e-306
4.2108e-307
3.56751e-308
1.01529e-309
-5.25668e-311
-7.13032e-312
-3.14866e-313
2.4366e-315
1.23739e-315
7.76896e-317
1.23067e-318
-1.75067e-319
-1.62992e-320
-5.38532e-322
1.97626e-323
0
0
0
0
0
0
0
0
0
0
0
0
0
0
0
0
0
0
0
0
0
0
0
0
0
0
0
0
0
0
0
0
0
0
0
0
0
0
0
0
0
0
0
0
0
0
0
0
0
0
0
0
0
0
0
0
0
0
0
0
0
0
0
0
0
0
0
0
0
0
0
0
0
0
0
0
0
0
0
0
0
0
0
0
0
0
0
0
0
0
0
0
0
0
0
0
0
0
0
0
0
0
0
)
;

boundaryField
{
    sides
    {
        type            zeroGradient;
    }
    empty
    {
        type            empty;
    }
}


// ************************************************************************* //
