/*--------------------------------*- C++ -*----------------------------------*\
| =========                 |                                                 |
| \\      /  F ield         | OpenFOAM: The Open Source CFD Toolbox           |
|  \\    /   O peration     | Version:  2312                                  |
|   \\  /    A nd           | Website:  www.openfoam.com                      |
|    \\/     M anipulation  |                                                 |
\*---------------------------------------------------------------------------*/
FoamFile
{
    version     2.0;
    format      ascii;
    arch        "LSB;label=32;scalar=64";
    class       volScalarField;
    location    "1.1";
    object      T;
}
// * * * * * * * * * * * * * * * * * * * * * * * * * * * * * * * * * * * * * //

dimensions      [0 0 0 1 0 0 0];

internalField   nonuniform List<scalar> 
1000
(
0
0
0
0
0
0
0
0
0
0
0
0
0
0
0
0
0
0
0
0
0
0
0
0
0
0
0
0
0
0
0
0
0
0
0
0
0
0
0
0
0
0
0
0
0
0
0
0
0
0
0
0
0
0
0
0
0
0
0
0
0
0
0
0
0
0
0
0
0
0
0
0
0
0
0
0
0
0
0
0
0
0
0
0
0
0
0
0
0
0
0
0
0
0
0
0
0
0
0
0
0
0
0
0
0
0
0
0
0
0
0
0
0
0
0
0
0
0
0
0
0
0
0
0
0
0
0
0
0
0
0
0
0
0
0
0
0
0
0
0
0
0
0
0
0
0
0
0
0
0
0
0
0
0
0
0
0
0
0
0
0
0
0
0
0
0
0
0
0
0
0
0
0
0
0
0
0
0
0
0
0
0
0
0
0
0
0
0
0
0
0
0
0
0
0
0
0
0
0
0
0
0
0
0
0
0
0
0
0
0
0
0
0
0
0
0
0
0
0
0
0
0
0
0
0
0
0
0
0
0
0
0
0
0
0
0
0
0
0
0
0
0
0
0
0
0
0
0
0
0
0
0
0
0
0
0
0
0
0
0
0
0
0
0
0
0
0
0
0
0
0
0
0
0
0
0
0
0
0
0
2.47033e-322
5.18522e-320
9.89738e-318
1.87864e-315
3.54746e-313
6.66386e-311
1.24524e-308
2.31465e-306
4.27962e-304
7.87041e-302
1.43961e-299
2.61898e-297
4.7385e-295
8.5262e-293
1.52566e-290
2.71477e-288
4.80354e-286
8.45134e-284
1.47845e-281
2.57151e-279
4.44683e-277
7.64495e-275
1.3066e-272
2.2199e-270
3.74913e-268
6.29377e-266
1.05016e-263
1.74159e-261
2.8705e-259
4.70189e-257
7.65366e-255
1.23801e-252
1.98984e-250
3.17782e-248
5.04234e-246
7.94886e-244
1.24487e-241
1.93673e-239
2.99304e-237
4.59443e-235
7.0049e-233
1.06071e-230
1.59512e-228
2.38212e-226
3.53251e-224
5.20145e-222
7.60431e-220
1.10373e-217
1.59039e-215
2.27488e-213
3.22993e-211
4.55178e-209
6.36636e-207
8.83679e-205
1.21719e-202
1.66362e-200
2.25604e-198
3.03533e-196
4.05132e-194
5.36398e-192
7.04436e-190
9.17542e-188
1.18524e-185
1.51824e-183
1.9284e-181
2.4285e-179
3.03196e-177
3.75245e-175
4.60334e-173
5.59701e-171
6.74408e-169
8.05252e-167
9.52664e-165
1.11661e-162
1.29651e-160
1.49111e-158
1.6985e-156
1.91597e-154
2.14009e-152
2.36672e-150
2.59108e-148
2.80791e-146
3.01162e-144
3.19652e-142
3.35706e-140
3.48809e-138
3.58514e-136
3.64462e-134
3.6641e-132
3.64241e-130
3.57973e-128
3.47766e-126
3.33912e-124
3.16823e-122
2.97008e-120
2.75052e-118
2.51583e-116
2.27243e-114
2.02659e-112
1.78412e-110
1.55018e-108
1.32909e-106
1.12422e-104
9.37964e-103
7.71725e-101
6.26014e-99
5.00555e-97
3.94425e-95
3.06207e-93
2.34151e-91
1.76317e-89
1.30706e-87
9.53619e-86
6.84562e-84
4.83369e-82
3.35614e-80
2.29066e-78
1.53636e-76
1.01226e-74
6.54949e-73
4.15981e-71
2.59254e-69
1.58486e-67
9.49931e-66
5.58005e-64
3.21096e-62
1.80917e-60
9.97597e-59
5.38073e-57
2.83729e-55
1.46183e-53
7.35473e-52
3.61111e-50
1.72916e-48
8.06959e-47
3.66754e-45
1.62208e-43
6.97577e-42
2.91448e-40
1.1819e-38
4.64768e-37
1.77041e-35
6.52558e-34
2.32465e-32
7.99362e-31
2.64963e-29
8.45372e-28
2.59206e-26
7.62489e-25
2.14785e-23
5.78189e-22
1.48411e-20
3.62347e-19
8.39203e-18
1.83815e-16
3.79493e-15
7.35669e-14
1.33336e-12
2.24833e-11
3.50714e-10
5.02751e-09
6.57149e-08
7.75936e-07
8.18267e-06
7.59865e-05
0.000610316
0.00414152
0.0230026
0.100013
0.319049
0.680951
0.899987
0.976997
0.995858
0.99939
0.999924
0.999992
0.999999
1
1
1
1
1
1
1
1
1
1
1
1
1
1
1
1
1
1
1
1
1
1
1
1
1
1
1
1
1
1
1
1
1
1
1
1
1
1
1
1
1
1
1
1
1
1
1
1
1
1
1
1
1
1
1
1
1
1
1
1
1
1
1
1
1
1
1
1
1
1
1
1
1
1
1
1
1
1
1
1
1
1
1
1
0.999999
0.999992
0.999924
0.99939
0.995858
0.976997
0.899987
0.680951
0.319049
0.100013
0.0230026
0.00414152
0.000610316
7.59865e-05
8.18267e-06
7.75936e-07
6.57149e-08
5.02751e-09
3.50714e-10
2.24833e-11
1.33336e-12
7.35669e-14
3.79493e-15
1.83815e-16
8.39203e-18
3.62347e-19
1.48411e-20
5.78189e-22
2.14785e-23
7.62489e-25
2.59206e-26
8.45372e-28
2.64963e-29
7.99362e-31
2.32465e-32
6.52558e-34
1.77041e-35
4.64768e-37
1.1819e-38
2.91448e-40
6.97577e-42
1.62208e-43
3.66754e-45
8.06959e-47
1.72916e-48
3.61111e-50
7.35473e-52
1.46183e-53
2.83729e-55
5.38073e-57
9.97597e-59
1.80917e-60
3.21096e-62
5.58005e-64
9.49931e-66
1.58486e-67
2.59254e-69
4.15981e-71
6.54949e-73
1.01226e-74
1.53636e-76
2.29066e-78
3.35614e-80
4.83369e-82
6.84562e-84
9.53619e-86
1.30706e-87
1.76317e-89
2.34151e-91
3.06207e-93
3.94425e-95
5.00555e-97
6.26014e-99
7.71725e-101
9.37964e-103
1.12422e-104
1.32909e-106
1.55018e-108
1.78412e-110
2.02659e-112
2.27243e-114
2.51583e-116
2.75052e-118
2.97008e-120
3.16823e-122
3.33912e-124
3.47766e-126
3.57973e-128
3.64241e-130
3.6641e-132
3.64462e-134
3.58514e-136
3.48809e-138
3.35706e-140
3.19652e-142
3.01162e-144
2.80791e-146
2.59108e-148
2.36672e-150
2.14009e-152
1.91597e-154
1.6985e-156
1.49111e-158
1.29651e-160
1.11661e-162
9.52664e-165
8.05252e-167
6.74408e-169
5.59701e-171
4.60334e-173
3.75245e-175
3.03196e-177
2.4285e-179
1.9284e-181
1.51824e-183
1.18524e-185
9.17542e-188
7.04436e-190
5.36398e-192
4.05132e-194
3.03533e-196
2.25604e-198
1.66362e-200
1.21719e-202
8.83679e-205
6.36636e-207
4.55178e-209
3.22993e-211
2.27488e-213
1.59039e-215
1.10373e-217
7.60431e-220
5.20145e-222
3.53251e-224
2.38212e-226
1.59512e-228
1.06071e-230
7.0049e-233
4.59443e-235
2.99304e-237
1.93673e-239
1.24487e-241
7.94886e-244
5.04234e-246
3.17782e-248
1.98984e-250
1.23801e-252
7.65366e-255
4.70189e-257
2.8705e-259
1.74159e-261
1.05016e-263
6.29377e-266
3.74913e-268
2.2199e-270
1.3066e-272
7.64495e-275
4.44683e-277
2.57151e-279
1.47845e-281
8.45134e-284
4.80354e-286
2.71477e-288
1.52566e-290
8.5262e-293
4.7385e-295
2.61898e-297
1.43961e-299
7.87041e-302
4.27962e-304
2.31465e-306
1.24524e-308
6.66386e-311
3.54746e-313
1.87864e-315
9.89737e-318
5.18522e-320
2.47033e-322
0
0
0
0
0
0
0
0
0
0
0
0
0
0
0
0
0
0
0
0
0
0
0
0
0
0
0
0
0
0
0
0
0
0
0
0
0
0
0
0
0
0
0
0
0
0
0
0
0
0
0
0
0
0
0
0
0
0
0
0
0
0
0
0
0
0
0
0
0
0
0
0
0
0
0
0
0
0
0
0
0
0
0
0
0
0
0
0
0
0
0
0
0
0
0
0
0
0
0
0
0
0
0
0
0
0
0
0
0
0
0
0
0
0
0
0
0
0
0
0
0
0
0
0
0
0
0
0
0
0
0
0
0
0
0
0
0
0
0
0
0
0
0
0
0
0
0
0
0
0
0
0
0
0
0
0
0
0
0
0
0
0
0
0
0
0
0
0
0
0
0
0
0
0
0
0
0
0
0
0
0
0
0
0
0
0
0
0
0
0
0
0
0
0
0
0
0
0
0
0
0
0
0
0
0
0
0
0
0
0
0
0
0
0
0
0
0
0
0
0
0
0
0
0
0
0
0
0
0
0
0
0
0
0
0
0
0
0
0
0
0
0
0
0
0
0
0
0
0
0
0
0
0
0
0
0
0
0
0
0
0
0
0
0
0
0
0
0
0
0
0
0
0
0
0
0
0
0
0
0
)
;

boundaryField
{
    sides
    {
        type            zeroGradient;
    }
    empty
    {
        type            empty;
    }
}


// ************************************************************************* //
