/*--------------------------------*- C++ -*----------------------------------*\
| =========                 |                                                 |
| \\      /  F ield         | OpenFOAM: The Open Source CFD Toolbox           |
|  \\    /   O peration     | Version:  2312                                  |
|   \\  /    A nd           | Website:  www.openfoam.com                      |
|    \\/     M anipulation  |                                                 |
\*---------------------------------------------------------------------------*/
FoamFile
{
    version     2.0;
    format      ascii;
    arch        "LSB;label=32;scalar=64";
    class       volScalarField;
    location    "2.2";
    object      T;
}
// * * * * * * * * * * * * * * * * * * * * * * * * * * * * * * * * * * * * * //

dimensions      [0 0 0 1 0 0 0];

internalField   nonuniform List<scalar> 
1000
(
0
0
0
0
0
0
0
0
0
0
0
0
0
0
0
0
0
0
0
0
0
0
0
0
0
0
0
0
0
0
0
0
0
0
0
0
0
0
0
0
0
0
0
0
0
0
0
0
0
0
0
0
0
0
0
0
0
0
0
0
0
0
0
0
0
0
0
0
0
0
0
0
0
0
0
0
0
0
0
0
0
0
0
0
0
0
0
0
0
0
0
0
0
0
0
0
0
0
0
0
0
0
0
0
0
0
0
0
0
0
0
0
0
0
0
0
0
0
0
0
0
0
0
0
0
0
0
0
0
0
0
0
0
0
0
0
0
0
0
0
0
0
0
0
0
0
0
0
0
0
0
0
0
0
0
0
0
0
0
0
0
0
0
0
0
0
0
0
0
0
0
0
0
0
0
0
0
0
0
0
0
0
0
0
0
0
0
0
0
0
0
0
0
0
0
0
0
0
0
0
0
0
0
0
0
0
0
0
0
0
0
0
0
0
0
0
0
0
0
0
0
0
0
0
0
0
0
0
0
0
0
0
0
0
0
0
0
0
0
0
0
0
0
0
0
0
0
0
0
0
0
0
0
0
0
0
0
0
0
0
0
0
0
0
0
0
0
0
0
0
0
0
0
0
0
0
0
0
0
0
0
0
0
0
0
0
0
0
0
0
0
0
0
0
0
0
0
0
0
0
0
0
0
0
0
0
0
0
0
0
0
0
0
0
0
0
0
0
0
0
0
0
0
0
0
0
0
0
0
0
0
0
0
0
0
0
0
0
0
0
0
0
0
0
0
0
0
0
0
0
0
0
0
0
0
0
0
0
0
0
0
0
0
0
0
0
0
0
0
0
0
0
0
0
0
0
0
0
0
0
0
0
0
0
0
0
0
0
0
0
0
0
0
0
0
0
0
0
0
0
0
0
0
0
7.48378e-94
-5.02383e-78
3.01872e-70
-1.7671e-66
-7.82198e-65
9.48202e-64
1.89515e-61
8.56607e-60
2.4528e-58
5.27453e-57
9.16018e-56
1.33874e-54
1.69111e-53
1.88133e-52
1.86874e-51
1.67457e-50
1.36433e-49
1.01654e-48
6.95519e-48
4.38076e-47
2.5419e-46
1.35661e-45
6.62578e-45
2.9278e-44
1.14117e-43
3.67704e-43
7.64257e-43
-1.13874e-42
-2.57443e-41
-1.97952e-40
-1.17552e-39
-6.09954e-39
-2.89061e-38
-1.278e-37
-5.33394e-37
-2.1165e-36
-8.0197e-36
-2.90988e-35
-1.01285e-34
-3.38615e-34
-1.08839e-33
-3.36704e-33
-1.00391e-32
-2.89062e-32
-8.06054e-32
-2.1852e-31
-5.78767e-31
-1.50608e-30
-3.87198e-30
-9.87647e-30
-2.50344e-29
-6.29369e-29
-1.56098e-28
-3.78972e-28
-8.923e-28
-2.01736e-27
-4.33318e-27
-8.73642e-27
-1.62802e-26
-2.7411e-26
-4.00968e-26
-4.68911e-26
-3.38297e-26
7.35141e-27
2.23611e-26
-2.74895e-25
-1.80072e-24
-6.87043e-24
-2.0362e-23
-5.07778e-23
-1.0931e-22
-2.02137e-22
-3.06439e-22
-3.15086e-22
6.67199e-23
1.47553e-21
5.04462e-21
1.2385e-20
2.49868e-20
4.22991e-20
5.742e-20
4.93587e-20
-2.80606e-20
-2.57175e-19
-7.56702e-19
-1.64876e-18
-2.95538e-18
-4.37637e-18
-4.91219e-18
-2.33149e-18
7.43072e-18
3.05436e-17
7.41284e-17
1.40747e-16
2.17305e-16
2.65011e-16
1.63204e-16
-6.10528e-16
-2.41725e-15
-3.74546e-15
8.93467e-16
1.22769e-14
1.31897e-14
-1.53645e-14
-4.46048e-14
-8.86718e-15
9.13114e-14
9.54026e-14
-1.04407e-13
-2.91989e-13
-4.27379e-14
5.81532e-13
5.79125e-13
-6.15654e-13
-1.77092e-12
-4.64921e-13
3.28578e-12
3.93424e-12
-2.3731e-12
-1.04894e-11
-6.07461e-12
1.48808e-11
2.75403e-11
1.02568e-13
-5.58088e-11
-5.95383e-11
3.87239e-11
1.66341e-10
1.14386e-10
-1.92121e-10
-4.49712e-10
-1.77323e-10
6.69599e-10
1.17238e-09
1.9277e-10
-2.06226e-09
-2.96876e-09
-7.71398e-11
5.81782e-09
7.68306e-09
-9.84125e-11
-1.52925e-08
-2.07832e-08
-1.32063e-09
3.84087e-08
5.6848e-08
1.37259e-08
-8.81823e-08
-1.56605e-07
-7.84497e-08
1.74432e-07
4.16304e-07
3.3104e-07
-2.32071e-07
-1.01521e-06
-1.17499e-06
-1.4941e-07
1.95917e-06
3.54476e-06
2.49951e-06
-2.06616e-06
-8.37857e-06
-1.05712e-05
-4.25473e-06
1.1643e-05
2.9235e-05
3.10435e-05
8.00732e-06
-4.1959e-05
-9.47747e-05
-0.000101002
-3.55607e-05
0.000111772
0.000287248
0.000363018
0.000235999
-0.000152281
-0.000738947
-0.00125914
-0.00128146
-0.00061309
0.000931317
0.00310767
0.00513213
0.00564362
0.00394649
-0.000784271
-0.00868182
-0.0185646
-0.0277581
-0.0318156
-0.0278373
-0.0126456
0.017223
0.0637798
0.127192
0.2057
0.295847
0.392981
0.49193
0.587696
0.676049
0.753924
0.81959
0.872595
0.913551
0.943822
0.965192
0.979563
0.988735
0.994257
0.997362
0.998967
0.999705
0.999972
1
1
1
1
1
1
1
1
1
1
1
1
1
1
1
1
1
1
1
1
1
1
1
1
1
1
1
1
1
1
1
1
1
1
1
1
1
1
1
1
1
1
0.999998
0.999996
0.999997
1
1.00001
1.00001
1
0.999988
0.999971
0.999969
0.999992
1.00004
1.00009
1.0001
1.00004
0.999888
0.999713
0.999638
0.999766
1.00015
1.00074
1.00126
1.00128
1.00061
0.999067
0.996892
0.994868
0.994357
0.996058
1.0008
1.0087
1.01857
1.02776
1.0318
1.0278
1.01259
0.982702
0.936125
0.872696
0.794175
0.704024
0.606891
0.50795
0.412197
0.32386
0.246002
0.180353
0.127363
0.0864192
0.0561578
0.0347956
0.0204291
0.0112604
0.00574114
0.00263722
0.00103276
0.000295143
2.82741e-05
2.69784e-16
2.63642e-16
2.58945e-16
2.49424e-16
2.36086e-16
2.19952e-16
2.01943e-16
1.82885e-16
1.63497e-16
1.44385e-16
1.26032e-16
1.08805e-16
9.2955e-17
7.86327e-17
6.58997e-17
5.47467e-17
4.51091e-17
3.68839e-17
2.99435e-17
2.41478e-17
1.93539e-17
1.54228e-17
1.22246e-17
9.64152e-18
7.56888e-18
5.91582e-18
4.60468e-18
3.57002e-18
2.75741e-18
2.122e-18
1.62722e-18
1.24348e-18
9.46992e-19
7.18755e-19
5.43692e-19
4.09889e-19
3.07979e-19
2.30629e-19
1.72124e-19
1.28025e-19
9.48999e-20
7.01051e-20
5.16103e-20
3.78633e-20
2.76813e-20
2.01667e-20
1.46404e-20
1.0591e-20
7.63445e-21
5.48367e-21
3.92474e-21
2.79894e-21
1.98889e-21
1.4082e-21
9.9345e-22
6.98321e-22
4.8909e-22
3.41307e-22
2.37314e-22
1.64407e-22
1.13485e-22
7.80507e-23
5.34854e-23
3.65186e-23
2.48437e-23
1.684e-23
1.13735e-23
7.65372e-24
5.13197e-24
3.42869e-24
2.2825e-24
1.51403e-24
1.0007e-24
6.59052e-25
4.32504e-25
2.82825e-25
1.84293e-25
1.19665e-25
7.74276e-26
4.99232e-26
3.20768e-26
2.05385e-26
1.3105e-26
8.33309e-27
5.28054e-27
3.33472e-27
2.09872e-27
1.31635e-27
8.22834e-28
5.12607e-28
3.18269e-28
1.96945e-28
1.21463e-28
7.46611e-29
4.57408e-29
2.79303e-29
1.69988e-29
1.03117e-29
6.23484e-30
3.75753e-30
2.25719e-30
1.35154e-30
8.06653e-31
4.79898e-31
2.8459e-31
1.6823e-31
9.91296e-32
5.82273e-32
3.40939e-32
1.99002e-32
1.15791e-32
6.71635e-33
3.88361e-33
2.23866e-33
1.28645e-33
7.36979e-34
4.20901e-34
2.39646e-34
1.36029e-34
7.69778e-35
4.34289e-35
2.44272e-35
1.3698e-35
7.65825e-36
4.26871e-36
2.37226e-36
1.31441e-36
7.26115e-37
3.99936e-37
2.19629e-37
1.20256e-37
6.56516e-38
3.57363e-38
1.93956e-38
1.04962e-38
5.66365e-39
3.04721e-39
1.63475e-39
8.74482e-40
4.66447e-40
2.4809e-40
1.31576e-40
6.95835e-41
3.66947e-41
1.92962e-41
1.01185e-41
5.29098e-42
2.75892e-42
1.43459e-42
7.43885e-43
3.8466e-43
1.98355e-43
1.02003e-43
5.23098e-44
2.67524e-44
1.36443e-44
6.93995e-45
3.5203e-45
1.78084e-45
8.9845e-46
4.52057e-46
2.26843e-46
1.13525e-46
5.6663e-47
2.82065e-47
1.40038e-47
6.93416e-48
3.42448e-48
1.68676e-48
8.28649e-49
4.06026e-49
1.98428e-49
9.67219e-50
4.70241e-50
2.28031e-50
1.10293e-50
5.32093e-51
2.56044e-51
1.22895e-51
5.88366e-52
2.8097e-52
1.33836e-52
6.35904e-53
3.01382e-53
1.42481e-53
6.71906e-54
3.16067e-54
1.4831e-54
6.94205e-55
3.2414e-55
1.50976e-55
7.01485e-56
3.25137e-56
1.50333e-56
6.93404e-57
3.19055e-57
1.46452e-57
6.70624e-58
3.0635e-58
1.3961e-58
6.34717e-59
2.87878e-59
1.30258e-59
5.87997e-60
2.64801e-60
1.18971e-60
5.33268e-61
2.3847e-61
1.06392e-61
4.7356e-62
2.10297e-62
9.31728e-63
4.11854e-63
1.81635e-63
7.99212e-64
3.50858e-64
1.53678e-64
6.71594e-65
2.92832e-65
1.27394e-65
5.5297e-66
2.39486e-66
1.03487e-66
4.46195e-67
1.91954e-67
8.23956e-68
3.529e-68
1.50814e-68
6.43096e-69
2.73626e-69
1.16169e-69
4.92125e-70
2.08026e-70
8.77439e-71
3.69299e-71
1.55097e-71
6.49973e-72
2.71804e-72
1.1342e-72
4.72276e-73
1.96237e-73
8.13663e-74
3.3666e-74
1.39002e-74
5.72718e-75
2.35478e-75
9.66165e-76
3.95592e-76
1.61637e-76
6.59077e-77
2.68184e-77
1.08902e-77
4.41311e-78
1.7847e-78
7.20274e-79
2.90098e-79
1.16603e-79
4.67729e-80
1.87241e-80
7.48055e-81
2.98258e-81
1.18681e-81
4.71303e-82
1.8679e-82
7.38832e-83
2.91659e-83
1.14907e-83
4.51815e-84
1.77305e-84
6.94432e-85
2.71449e-85
1.05901e-85
4.1235e-86
1.60247e-86
6.21546e-87
2.40613e-87
9.29666e-88
3.58511e-88
1.37989e-88
5.30102e-89
2.03257e-89
)
;

boundaryField
{
    sides
    {
        type            zeroGradient;
    }
    empty
    {
        type            empty;
    }
}


// ************************************************************************* //
