/*--------------------------------*- C++ -*----------------------------------*\
| =========                 |                                                 |
| \\      /  F ield         | OpenFOAM: The Open Source CFD Toolbox           |
|  \\    /   O peration     | Version:  2312                                  |
|   \\  /    A nd           | Website:  www.openfoam.com                      |
|    \\/     M anipulation  |                                                 |
\*---------------------------------------------------------------------------*/
FoamFile
{
    version     2.0;
    format      ascii;
    arch        "LSB;label=32;scalar=64";
    class       volScalarField;
    location    "0.2";
    object      T;
}
// * * * * * * * * * * * * * * * * * * * * * * * * * * * * * * * * * * * * * //

dimensions      [0 0 0 1 0 0 0];

internalField   nonuniform List<scalar> 
1000
(
0
0
0
0
0
0
0
0
0
0
0
0
0
0
0
0
0
0
0
0
0
0
0
0
0
0
0
0
0
0
0
0
0
0
0
0
0
0
0
0
0
0
0
0
0
0
0
0
0
0
0
0
0
0
0
0
0
0
0
0
0
0
0
0
0
0
0
0
0
0
0
0
0
0
0
0
0
0
0
0
0
0
0
0
0
0
0
0
0
0
0
0
0
0
0
0
0
0
0
0
0
0
0
0
0
0
0
0
0
0
0
0
0
0
0
0
0
0
0
0
0
0
0
0
0
0
0
0
0
0
0
0
0
0
0
0
0
0
0
0
0
0
0
0
0
0
0
0
0
0
0
0
0
0
0
0
0
0
0
0
0
0
0
0
0
0
0
0
0
0
0
0
0
-4.94066e-324
2.96439e-323
-4.94066e-324
2.96439e-323
-4.94066e-324
2.96439e-323
-4.94066e-324
4.19956e-322
-5.16793e-321
6.66939e-320
-8.57821e-319
1.1036e-317
-1.41979e-316
1.82656e-315
-2.34988e-314
3.02313e-313
-3.88928e-312
5.00357e-311
-6.43711e-310
8.28137e-309
-1.0654e-307
1.37064e-306
-1.76334e-305
2.26854e-304
-2.91849e-303
3.75465e-302
-4.83038e-301
6.2143e-300
-7.99473e-299
1.02852e-297
-1.3232e-296
1.7023e-295
-2.19002e-294
2.81747e-293
-3.62469e-292
4.66318e-291
-5.9992e-290
7.718e-289
-9.92924e-288
1.2774e-286
-1.64338e-285
2.11422e-284
-2.71995e-283
3.49923e-282
-4.50177e-281
5.79155e-280
-7.45085e-279
9.58555e-278
-1.23319e-276
1.5865e-275
-2.04104e-274
2.6258e-273
-3.37811e-272
4.34595e-271
-5.59108e-270
7.19295e-269
-9.25376e-268
1.1905e-266
-1.53158e-265
1.97039e-264
-2.53491e-263
3.26118e-262
-4.19552e-261
5.39755e-260
-6.94397e-259
8.93345e-258
-1.14929e-256
1.47857e-255
-1.90219e-254
2.44717e-253
-3.1483e-252
4.0503e-251
-5.21072e-250
6.70362e-249
-8.62423e-248
1.10951e-246
-1.42739e-245
1.83634e-244
-2.36246e-243
3.03932e-242
-3.9101e-241
5.03036e-240
-6.47158e-239
8.32572e-238
-1.07111e-236
1.37798e-235
-1.77278e-234
2.28069e-233
-2.93412e-232
3.77476e-231
-4.85624e-230
6.24757e-229
-8.03753e-228
1.03403e-226
-1.33029e-225
1.71142e-224
-2.20175e-223
2.83256e-222
-3.6441e-221
4.68815e-220
-6.03132e-219
7.75932e-218
-9.9824e-217
1.28424e-215
-1.65218e-214
2.12554e-213
-2.73451e-212
3.51796e-211
-4.52587e-210
5.82256e-209
-7.49074e-208
9.63687e-207
-1.23979e-205
1.59499e-204
-2.05196e-203
2.63986e-202
-3.39619e-201
4.36922e-200
-5.62102e-199
7.23146e-198
-9.30331e-197
1.19687e-195
-1.53978e-194
1.98094e-193
-2.54849e-192
3.27864e-191
-4.21798e-190
5.42645e-189
-6.98115e-188
8.98128e-187
-1.15545e-185
1.48649e-184
-1.91237e-183
2.46027e-182
-3.16515e-181
4.07198e-180
-5.23862e-179
6.73951e-178
-8.67041e-177
1.11545e-175
-1.43503e-174
1.84618e-173
-2.37511e-172
3.05559e-171
-3.93104e-170
5.05729e-169
-6.50623e-168
8.37029e-167
-1.07684e-165
1.38536e-164
-1.78227e-163
2.2929e-162
-2.94983e-161
3.79497e-160
-4.88224e-159
6.28103e-158
-8.08057e-157
1.03957e-155
-1.33741e-154
1.72058e-153
-2.21354e-152
2.84772e-151
-3.66361e-150
4.71325e-149
-6.06362e-148
7.80087e-147
-1.00358e-145
1.29112e-144
-1.66103e-143
2.13692e-142
-2.74915e-141
3.5368e-140
-4.55011e-139
5.85373e-138
-7.53085e-137
9.68847e-136
-1.24643e-134
1.60353e-133
-2.06295e-132
2.654e-131
-3.41438e-130
4.39261e-129
-5.65111e-128
7.27018e-127
-9.35312e-126
1.20328e-124
-1.54803e-123
1.99154e-122
-2.56213e-121
3.29619e-120
-4.24057e-119
5.45551e-118
-7.01853e-117
9.02937e-116
-1.16163e-114
1.49445e-113
-1.92261e-112
2.47345e-111
-3.1821e-110
4.09378e-109
-5.26667e-108
6.77559e-107
-8.71683e-106
1.12142e-104
-1.44272e-103
1.85606e-102
-2.38783e-101
3.07195e-100
-3.95208e-99
5.08437e-98
-6.54107e-97
8.41511e-96
-1.08261e-94
1.39278e-93
-1.79182e-92
2.30518e-91
-2.96562e-90
3.81529e-89
-4.90838e-88
6.31465e-87
-8.12383e-86
1.04513e-84
-1.34457e-83
1.72979e-82
-2.22539e-81
2.86297e-80
-3.68323e-79
4.73849e-78
-6.09608e-77
7.84263e-76
-1.00896e-74
1.29803e-73
-1.66992e-72
2.14836e-71
-2.76387e-70
3.55574e-69
-4.57447e-68
5.88507e-67
-7.57117e-66
9.74035e-65
-1.2531e-63
1.61212e-62
-2.074e-61
2.66821e-60
-3.43266e-59
4.41613e-58
-5.68137e-57
7.30911e-56
-9.4032e-55
1.20973e-53
-1.55632e-52
2.00221e-51
-2.57585e-50
3.31384e-49
-4.26327e-48
5.48472e-47
-7.05611e-46
9.07772e-45
-1.16785e-43
1.50245e-42
-1.9329e-41
2.48669e-40
-3.19914e-39
4.1157e-38
-5.29487e-37
6.81187e-36
-8.7635e-35
1.12743e-33
-1.45044e-32
1.866e-31
-2.40062e-30
3.0884e-29
-3.97324e-28
5.11159e-27
-6.57609e-26
8.46017e-25
-5.30307e-23
2.25536e-11
1.02999e-09
2.2682e-08
3.20526e-07
3.26287e-06
2.54609e-05
0.000158211
0.000802761
0.00338343
0.0119853
0.0359637
0.0918526
0.200159
0.372357
0.591132
0.801808
0.940091
0.991341
0.999571
0.999995
1
1
1
1
1
1
1
1
1
1
1
1
1
1
1
1
1
1
1
1
1
1
1
1
1
1
1
1
1
1
1
1
1
1
1
1
1
1
1
1
1
1
1
1
1
1
1
1
1
1
1
1
1
1
1
1
1
1
1
1
1
1
1
1
1
1
1
1
1
1
1
1
1
1
1
1
1
1
1
1
1
1
1
1
0.999997
0.999974
0.99984
0.999192
0.996597
0.987961
0.963912
0.907916
0.799498
0.62725
0.408542
0.19802
0.0598637
0.00865611
0.000428813
5.16879e-06
1.12616e-08
3.50769e-12
2.85835e-16
2.30477e-20
1.84598e-24
1.47411e-28
1.17728e-32
9.42248e-37
7.56446e-41
6.09111e-45
4.91613e-49
3.97326e-53
3.21266e-57
2.59691e-61
2.09761e-65
1.69266e-69
1.36452e-73
1.099e-77
8.84485e-82
7.11414e-86
5.7194e-90
4.59637e-94
3.69263e-98
2.96565e-102
2.38101e-106
1.91096e-110
1.53312e-114
1.22948e-118
9.85562e-123
7.89685e-127
6.32453e-131
5.06296e-135
4.05119e-139
3.24012e-143
2.59024e-147
2.06975e-151
1.65307e-155
1.31966e-159
1.05299e-163
8.39802e-168
6.69447e-172
5.33383e-176
4.24761e-180
3.38087e-184
2.68961e-188
2.13858e-192
1.69955e-196
1.34993e-200
1.07167e-204
8.50307e-209
6.74305e-213
5.3444e-217
4.23353e-221
3.3517e-225
2.65206e-229
2.09728e-233
1.6576e-237
1.30933e-241
1.03364e-245
8.15511e-250
6.4303e-254
5.06723e-258
3.99066e-262
3.14087e-266
2.4705e-270
1.94198e-274
1.52556e-278
1.19766e-282
9.39623e-287
7.36696e-291
5.7721e-295
4.51947e-299
3.53627e-303
2.76507e-307
2.16055e-311
1.68702e-315
1.31609e-319
0
0
0
0
0
0
0
0
0
0
0
0
0
0
0
0
0
0
0
0
0
0
0
0
0
0
0
0
0
0
0
0
0
0
0
0
0
0
0
0
0
0
0
0
0
0
0
0
0
0
0
0
0
0
0
0
0
0
0
0
0
0
0
0
0
0
0
0
0
0
0
0
0
0
0
0
0
0
0
0
0
0
0
0
0
0
0
0
0
0
0
0
0
0
0
0
0
0
0
0
0
0
0
0
0
0
0
0
0
0
0
0
0
0
0
0
0
0
0
0
0
0
0
0
0
0
0
0
0
0
0
0
0
0
0
0
0
0
0
0
0
0
0
0
0
0
0
0
0
0
0
0
0
0
0
0
0
0
0
0
0
0
0
0
0
0
0
0
0
0
0
0
0
0
0
0
0
0
0
0
0
0
0
0
0
0
0
0
0
0
0
0
0
0
0
0
0
0
0
0
0
0
0
0
0
0
0
0
0
0
0
0
0
0
0
0
0
0
0
0
0
0
0
0
0
0
0
0
0
0
0
0
0
0
0
0
0
0
0
0
0
0
0
0
0
0
0
0
0
0
0
0
0
0
0
0
0
0
0
0
0
0
0
0
0
0
0
0
0
0
0
0
0
0
0
0
0
0
0
0
0
0
0
0
0
0
0
0
0
0
0
0
0
0
0
0
0
0
0
0
0
0
0
0
0
0
0
0
0
0
0
0
0
0
0
0
0
0
0
0
0
0
0
0
0
0
0
0
0
0
0
0
0
0
0
0
0
0
0
0
0
0
0
0
0
0
0
0
0
0
0
0
0
)
;

boundaryField
{
    sides
    {
        type            zeroGradient;
    }
    empty
    {
        type            empty;
    }
}


// ************************************************************************* //
