/*--------------------------------*- C++ -*----------------------------------*\
| =========                 |                                                 |
| \\      /  F ield         | OpenFOAM: The Open Source CFD Toolbox           |
|  \\    /   O peration     | Version:  2312                                  |
|   \\  /    A nd           | Website:  www.openfoam.com                      |
|    \\/     M anipulation  |                                                 |
\*---------------------------------------------------------------------------*/
FoamFile
{
    version     2.0;
    format      ascii;
    arch        "LSB;label=32;scalar=64";
    class       volScalarField;
    location    "1.8";
    object      T;
}
// * * * * * * * * * * * * * * * * * * * * * * * * * * * * * * * * * * * * * //

dimensions      [0 0 0 1 0 0 0];

internalField   nonuniform List<scalar> 
1000
(
0
0
0
0
0
0
0
0
0
0
0
0
0
0
0
0
0
0
0
0
0
0
0
0
0
0
0
0
0
0
0
0
0
0
0
0
0
0
0
0
0
0
0
0
0
0
0
0
0
0
0
0
0
0
0
0
0
0
0
0
0
0
0
0
0
-7.90505e-323
1.29939e-321
-2.04197e-320
3.19908e-319
-4.99497e-318
7.77178e-317
-1.20499e-315
1.86173e-314
-2.86629e-313
4.39732e-312
-6.72228e-311
1.02401e-309
-1.55433e-308
2.35091e-307
-3.54302e-306
5.32054e-305
-7.96116e-304
1.18695e-302
-1.76328e-301
2.61e-300
-3.8493e-299
5.65646e-298
-8.28179e-297
1.20814e-295
-1.75598e-294
2.54288e-293
-3.66889e-292
5.274e-291
-7.55335e-290
1.07777e-288
-1.53215e-287
2.16998e-286
-3.06187e-285
4.30418e-284
-6.02786e-283
8.41008e-282
-1.16895e-280
1.61864e-279
-2.23282e-278
3.06835e-277
-4.20048e-276
5.72836e-275
-7.78209e-274
1.05315e-272
-1.41975e-271
1.90656e-270
-2.55039e-269
3.39838e-268
-4.51071e-267
5.96375e-266
-7.85398e-265
1.03027e-263
-1.34618e-262
1.752e-261
-2.27114e-260
2.93242e-259
-3.77116e-258
4.83044e-257
-6.16247e-256
7.83026e-255
-9.90932e-254
1.24897e-252
-1.56783e-251
1.9601e-250
-2.44051e-249
3.02625e-248
-3.73717e-247
4.59612e-246
-5.62917e-245
6.86586e-244
-8.33948e-243
1.00872e-241
-1.21502e-240
1.45737e-239
-1.74072e-238
2.07038e-237
-2.45206e-236
2.89176e-235
-3.39579e-234
3.97062e-233
-4.62285e-232
5.35907e-231
-6.18572e-230
7.10895e-229
-8.13447e-228
9.26735e-227
-1.05118e-225
1.1871e-224
-1.33469e-223
1.494e-222
-1.6649e-221
1.84709e-220
-2.04006e-219
2.24308e-218
-2.45522e-217
2.67528e-216
-2.90184e-215
3.13328e-214
-3.36772e-213
3.60312e-212
-3.83724e-211
4.06769e-210
-4.29201e-209
4.50762e-208
-4.71195e-207
4.90244e-206
-5.07663e-205
5.23217e-204
-5.36689e-203
5.47886e-202
-5.56642e-201
5.62822e-200
-5.66328e-199
5.67097e-198
-5.65108e-197
5.60377e-196
-5.52962e-195
5.4296e-194
-5.30505e-193
5.15762e-192
-4.9893e-191
4.8023e-190
-4.59908e-189
4.38221e-188
-4.15439e-187
3.91835e-186
-3.6768e-185
3.43241e-184
-3.18771e-183
2.9451e-182
-2.70677e-181
2.4747e-180
-2.25062e-179
2.03601e-178
-1.83208e-177
1.63978e-176
-1.45979e-175
1.29256e-174
-1.13828e-173
9.96963e-173
-8.68412e-172
7.52278e-171
-6.48072e-170
5.552e-169
-4.72981e-168
4.00676e-167
-3.37508e-166
2.82686e-165
-2.35418e-164
1.9493e-163
-1.60474e-162
1.31342e-161
-1.06872e-160
8.64509e-160
-6.95194e-159
5.55722e-158
-4.41582e-157
3.48778e-156
-2.73815e-155
2.13658e-154
-1.65699e-153
1.27715e-152
-9.78288e-152
7.44699e-151
-5.63333e-150
4.2345e-149
-3.16282e-148
2.34727e-147
-1.73081e-146
1.26799e-145
-9.22878e-145
6.67286e-144
-4.79293e-143
3.41971e-142
-2.42359e-141
1.70603e-140
-1.19275e-139
8.2819e-139
-5.71087e-138
3.91061e-137
-2.65909e-136
1.79533e-135
-1.20352e-134
8.01007e-134
-5.29257e-133
3.47151e-132
-2.2603e-131
1.46077e-130
-9.36994e-130
5.9649e-129
-3.76836e-128
2.3624e-127
-1.46952e-126
9.06957e-126
-5.55336e-125
3.37325e-124
-2.03251e-123
1.21471e-122
-7.19993e-122
4.23221e-121
-2.46689e-120
1.42573e-119
-8.16935e-119
4.64045e-118
-2.61283e-117
1.45814e-116
-8.06441e-116
4.41966e-115
-2.39992e-114
1.29105e-113
-6.87989e-113
3.63121e-112
-1.89801e-111
9.82345e-111
-5.03368e-110
2.55329e-109
-1.28186e-108
6.36848e-108
-3.13052e-107
1.52231e-106
-7.32184e-106
3.48242e-105
-1.63757e-104
7.61168e-104
-3.49647e-103
1.58687e-102
-7.11392e-102
3.1493e-101
-1.37637e-100
5.93665e-100
-2.52633e-99
1.06031e-98
-4.38738e-98
1.78909e-97
-7.18664e-97
2.84235e-96
-1.10627e-95
4.23473e-95
-1.5933e-94
5.888e-94
-2.13546e-93
7.59415e-93
-2.64535e-92
9.01541e-92
-3.00181e-91
9.74887e-91
-3.08197e-90
9.46073e-90
-2.81106e-89
8.05116e-89
-2.21011e-88
5.76696e-88
-1.41204e-87
3.17214e-87
-6.24296e-87
9.4616e-87
-4.48746e-87
-4.1181e-86
2.26952e-85
-8.05706e-85
2.29831e-84
-5.43364e-84
1.00762e-83
-1.06671e-83
-1.73654e-83
1.48286e-82
-5.5173e-82
1.48787e-81
-2.97449e-81
3.35198e-81
4.72912e-81
-4.19765e-80
1.48284e-79
-3.55849e-79
5.36553e-79
5.59225e-80
-3.66195e-78
1.45546e-77
-3.53948e-77
4.89553e-77
3.06991e-77
-4.30435e-76
1.47877e-75
-2.97758e-75
2.04461e-75
1.09819e-74
-5.38692e-74
1.30711e-73
-1.4278e-73
-2.96178e-73
1.95118e-72
-5.0985e-72
5.8585e-72
1.10985e-71
-7.4347e-71
1.85136e-70
-1.67903e-70
-5.7399e-70
2.92006e-69
-6.02691e-69
1.67362e-69
3.12661e-68
-1.08767e-67
1.50066e-67
1.93871e-67
-1.49423e-66
3.33284e-66
-9.53067e-67
-1.714e-65
5.54371e-65
-5.68129e-65
-1.68692e-64
8.08471e-64
-1.2326e-63
-1.41668e-63
1.10708e-62
-2.10386e-62
-9.87972e-63
1.48645e-61
-3.20796e-61
-6.06368e-62
2.01517e-60
-4.5659e-60
-6.81824e-61
2.79823e-59
-6.14028e-59
-1.96521e-59
3.96672e-58
-7.71942e-58
-5.70599e-58
5.62932e-57
-8.71815e-57
-1.36972e-56
7.74646e-56
-7.92036e-56
-2.78887e-55
9.88993e-55
-3.32325e-55
-4.90395e-54
1.0912e-53
7.50777e-54
-7.39255e-53
8.73331e-53
2.5913e-52
-9.15404e-52
7.72417e-53
4.89686e-51
-8.12228e-51
-1.42352e-50
6.56375e-50
-1.91658e-50
-3.2813e-49
5.63629e-49
9.98107e-49
-4.36302e-48
3.1839e-49
2.29457e-47
-2.99847e-47
-8.62283e-47
2.59737e-46
1.62894e-46
-1.5514e-45
7.92823e-46
7.33884e-45
-1.14777e-44
-2.73192e-44
8.53003e-44
6.56057e-44
-4.99352e-43
7.52543e-44
2.51779e-42
-2.31187e-42
-1.12384e-41
1.96853e-41
4.43099e-41
-1.2828e-40
-1.48252e-40
7.33845e-40
3.57725e-40
-3.87669e-39
1.52838e-41
1.94198e-38
-7.8862e-39
-9.38612e-38
7.08079e-38
4.43579e-37
-4.70432e-37
-2.07319e-36
2.74014e-36
9.67961e-36
-1.4761e-35
-4.5533e-35
7.52194e-35
2.17119e-34
-3.66027e-34
-1.05237e-33
1.70303e-33
5.17874e-33
-7.52865e-33
-2.57473e-32
3.10908e-32
1.28318e-31
-1.15373e-31
-6.34785e-31
3.45871e-31
3.08196e-30
-4.69795e-31
-1.44939e-29
-4.10698e-30
6.494e-29
5.11177e-29
-2.70623e-28
-3.84857e-28
1.00487e-27
2.3716e-27
-2.99608e-27
-1.27429e-26
4.34232e-27
6.03102e-26
2.75387e-26
-2.45985e-25
-3.28717e-25
8.0036e-25
2.16902e-24
-1.48787e-24
-1.0916e-23
-4.37413e-24
4.28988e-23
6.42159e-23
-1.151e-22
-4.04321e-22
2.83651e-23
1.75679e-21
2.00299e-21
-4.95037e-21
-1.47264e-20
1.64318e-21
6.37788e-20
7.99133e-20
-1.5357e-19
-5.4851e-19
-1.63415e-19
2.00744e-18
3.70011e-18
-2.4653e-18
-1.88614e-17
-2.0239e-17
4.27827e-17
1.5198e-16
8.63498e-17
-4.54358e-16
-1.13555e-15
-2.32825e-16
4.02415e-15
8.3001e-15
-1.19059e-16
-3.22772e-14
-6.1676e-14
2.95979e-15
2.40717e-13
4.732e-13
5.81778e-14
-1.65541e-12
-3.69239e-12
-1.70678e-12
9.96891e-12
2.80652e-11
2.56684e-11
-4.45759e-11
-1.94171e-10
-2.86053e-10
2.93276e-11
1.08776e-09
2.49021e-09
2.17902e-09
-3.39751e-09
-1.59715e-08
-2.81305e-08
-1.61198e-08
5.49657e-08
1.96578e-07
3.27289e-07
2.03778e-07
-5.47081e-07
-2.14612e-06
-4.03651e-06
-4.08139e-06
1.75783e-06
1.80461e-05
4.54034e-05
7.24029e-05
6.58304e-05
-3.44483e-05
-0.0003048
-0.000796755
-0.00145248
-0.00197292
-0.0016522
0.000784928
0.00728519
0.0204415
0.0432851
0.0788776
0.129739
0.197214
0.280919
0.378431
0.485332
0.595667
0.702737
0.80009
0.882499
0.946697
0.991733
1.01888
1.03115
1.03255
1.0273
1.01914
1.01086
1.00418
0.999766
0.997553
0.997016
0.997485
0.998358
0.999216
0.999841
1.00018
1.00029
1.00026
1.00016
1.00007
1.00001
0.999977
0.999971
0.999978
0.999988
0.999997
1
1
1
1
1
1
1
1
1
1
1
1
1
1
1
1
1
1
1
1
1
1
1
1
1
1
1
1
1
1
1
1
1
1
1
1
1
1
1
1
1
1
1
1
1
1
1
1
0.999998
0.999982
0.999955
0.999928
0.999934
1.00003
1.0003
1.0008
1.00145
1.00197
1.00165
0.999215
0.992715
0.979559
0.956715
0.921122
0.870261
0.802786
0.719081
0.621569
0.514668
0.404333
0.297263
0.19991
0.117501
0.053303
0.00826663
-0.0188804
-0.0311484
-0.03255
-0.0273019
-0.0191385
-0.0108624
-0.0041762
0.000234094
0.00244666
0.00298379
0.00251493
0.00164151
0.000783812
0.000158544
-0.000183166
-0.000291773
-0.000257199
-0.000164608
-7.23868e-05
-8.45327e-06
2.26172e-05
2.89452e-05
2.21589e-05
1.18146e-05
3.38879e-06
-1.3306e-06
-2.82786e-06
-2.43509e-06
-1.39243e-06
-4.59474e-07
8.49621e-08
2.6866e-07
2.38114e-07
1.3414e-07
4.15895e-08
-1.01993e-08
-2.57032e-08
-2.11133e-08
-1.07745e-08
-2.51659e-09
1.54765e-09
2.36642e-09
1.65391e-09
6.9066e-10
5.17834e-11
-1.9437e-10
-1.94181e-10
-1.07879e-10
-3.01124e-11
9.8186e-12
1.87742e-11
1.31595e-11
5.22846e-12
1.93953e-13
-1.5374e-12
-1.37275e-12
-6.68547e-13
-1.2486e-13
1.07125e-13
1.28148e-13
7.23291e-14
1.96354e-14
-6.22998e-15
-1.10361e-14
-6.99336e-15
-2.27262e-15
2.83202e-16
8.98355e-16
6.2224e-16
2.22876e-16
-7.95576e-18
-7.05414e-17
-5.18526e-17
-1.94494e-17
-6.51477e-20
5.4261e-18
4.08908e-18
1.54261e-18
1.51798e-20
-4.12189e-19
-3.06641e-19
-1.1209e-19
1.23444e-21
3.09062e-20
2.18722e-20
7.45251e-21
-4.54382e-22
-2.26948e-21
-1.47849e-21
-4.48472e-22
6.74497e-23
1.61249e-22
9.40305e-23
2.37909e-23
-7.3641e-24
-1.09388e-23
-5.56493e-24
-1.04294e-24
6.67726e-25
6.99271e-25
3.01445e-25
3.00648e-26
-5.26314e-26
-4.15737e-26
-1.45414e-26
4.06602e-28
3.67894e-27
2.26492e-27
5.90878e-28
-1.48266e-28
-2.29773e-28
-1.10805e-28
-1.71645e-29
1.43868e-29
1.28114e-29
4.70196e-30
3.85533e-32
-1.02021e-30
-6.3167e-31
-1.59932e-31
4.13018e-32
5.97118e-32
2.69092e-32
3.2208e-33
-3.85346e-33
-2.97225e-33
-9.36516e-34
7.7609e-35
2.42478e-34
1.25167e-34
2.21705e-35
-1.3137e-35
-1.21462e-35
-4.27063e-36
4.34502e-38
8.94223e-37
4.9826e-37
1.01028e-37
-4.32207e-38
-4.44177e-38
-1.61945e-38
-2.05846e-40
3.07995e-39
1.74003e-39
3.54483e-40
-1.44501e-40
-1.4752e-40
-5.23063e-41
1.00151e-44
1.00081e-41
5.37726e-42
9.82151e-43
-4.9106e-43
-4.45648e-43
-1.44127e-43
6.99552e-45
3.0426e-44
1.46484e-44
2.04807e-45
-1.61905e-45
-1.213e-45
-3.32292e-46
4.85112e-47
8.47759e-47
3.46215e-47
2.47798e-48
-4.90659e-48
-2.92127e-48
-6.06004e-49
2.09426e-49
2.11021e-49
6.8745e-50
-2.49167e-51
-1.31357e-50
-6.05858e-51
-7.26444e-52
6.80078e-52
4.56373e-52
1.07e-52
-2.51865e-53
-3.02188e-53
-1.0359e-53
6.74166e-56
1.75716e-54
8.28705e-55
1.04478e-55
-8.67985e-56
-5.8225e-56
-1.32959e-56
3.22238e-57
3.6671e-57
1.19365e-57
-3.39897e-59
-2.07201e-58
-9.05263e-59
-8.81174e-60
1.03015e-59
6.11919e-60
1.17726e-60
-4.23037e-61
-3.7635e-61
-1.0471e-61
1.10815e-62
2.11837e-62
7.80869e-63
2.45111e-64
-1.08511e-63
-5.20481e-64
-6.62171e-65
4.94752e-65
3.18217e-65
6.56557e-66
-1.88582e-66
-1.80499e-66
-5.06828e-67
4.7117e-68
9.53046e-68
3.42788e-68
7.99498e-70
-4.66816e-69
-2.11812e-69
-2.2774e-70
2.09449e-70
1.21902e-70
2.15753e-71
-8.34298e-72
-6.59848e-72
-1.58709e-72
2.70475e-73
3.37473e-73
1.02618e-73
-4.71933e-75
-1.63217e-74
-6.09243e-75
-2.43349e-76
7.44364e-76
3.39018e-76
3.62122e-77
-3.17579e-77
-1.78802e-77
-2.92676e-78
1.24584e-78
8.99654e-79
1.94026e-79
-4.32028e-80
-4.33501e-80
-1.15413e-80
1.18207e-81
2.00433e-81
6.38018e-82
-1.24995e-83
-8.8962e-83
-3.33603e-83
-1.44782e-84
3.78619e-84
1.66666e-84
1.58124e-85
-1.54034e-85
-8.00693e-86
-1.11589e-86
5.95383e-87
3.715e-87
6.67301e-88
-2.16157e-88
-1.66968e-88
-3.63161e-89
7.20542e-90
7.285e-90
1.8532e-90
-2.09228e-91
-3.09045e-91
-9.00617e-92
4.46254e-93
1.2761e-92
4.20687e-93
1.10873e-96
-5.13245e-94
-1.90017e-94
-7.83218e-96
2.01141e-95
8.3341e-96
6.34043e-97
-7.68104e-97
-3.56041e-97
-3.79474e-98
2.85714e-98
1.48506e-98
1.98816e-99
-1.0344e-99
-6.05914e-100
-9.61902e-101
3.63991e-101
2.42203e-101
4.40226e-102
-1.24221e-102
-9.49773e-103
-1.93084e-103
4.09752e-104
3.65788e-104
8.18057e-105
-1.29938e-105
-1.385e-105
-3.36559e-106
3.92637e-107
5.16033e-107
1.3495e-107
-1.11284e-108
-1.89357e-108
-5.28794e-109
2.86574e-110
6.84861e-110
2.02908e-110
-6.18761e-112
-2.44323e-111
-7.63678e-112
7.96658e-114
8.60348e-113
2.82283e-113
1.88621e-115
-3.00954e-114
-7.61575e-115
)
;

boundaryField
{
    sides
    {
        type            zeroGradient;
    }
    empty
    {
        type            empty;
    }
}


// ************************************************************************* //
