/*--------------------------------*- C++ -*----------------------------------*\
| =========                 |                                                 |
| \\      /  F ield         | OpenFOAM: The Open Source CFD Toolbox           |
|  \\    /   O peration     | Version:  2312                                  |
|   \\  /    A nd           | Website:  www.openfoam.com                      |
|    \\/     M anipulation  |                                                 |
\*---------------------------------------------------------------------------*/
FoamFile
{
    version     2.0;
    format      ascii;
    arch        "LSB;label=32;scalar=64";
    class       volScalarField;
    location    "4.4";
    object      T;
}
// * * * * * * * * * * * * * * * * * * * * * * * * * * * * * * * * * * * * * //

dimensions      [0 0 0 1 0 0 0];

internalField   nonuniform List<scalar> 
1000
(
0
0
0
0
0
0
0
0
0
0
0
0
0
0
0
0
0
0
0
0
0
0
0
0
0
0
0
0
0
0
0
0
0
0
0
0
0
0
0
0
0
0
0
0
0
0
0
0
0
0
0
0
0
0
0
0
0
0
0
0
0
0
0
0
0
0
0
0
0
0
0
0
0
0
0
0
0
0
0
0
0
0
0
0
0
0
0
0
0
0
0
0
0
0
0
0
0
0
0
0
0
0
0
0
0
0
0
0
0
0
0
0
0
0
0
0
0
0
0
0
0
0
0
0
0
0
0
0
0
0
0
0
0
0
0
0
0
0
0
0
0
0
0
0
0
0
0
0
0
0
0
0
0
0
0
0
0
0
0
0
0
0
0
0
0
0
0
0
0
0
0
0
0
0
0
0
0
0
0
0
0
0
0
0
0
0
0
0
0
0
0
0
0
0
0
0
0
0
0
0
0
0
0
0
0
0
0
0
0
0
0
0
0
0
0
0
0
0
0
0
0
0
0
0
0
0
0
0
0
0
0
0
0
0
0
0
0
0
0
0
0
0
0
0
0
0
0
0
0
0
0
0
0
0
0
0
0
0
0
0
0
0
0
0
0
0
0
0
0
0
0
0
0
0
0
0
0
0
0
0
0
0
0
0
0
0
0
0
0
0
0
0
0
0
0
0
0
0
0
0
0
0
0
0
0
0
0
0
0
0
0
0
0
0
0
0
0
0
0
0
0
0
0
0
0
0
0
0
0
0
0
0
0
0
0
0
0
0
0
0
0
0
0
0
0
0
0
0
0
0
0
0
0
0
0
0
0
0
0
0
0
0
0
0
0
0
0
0
0
0
0
0
0
0
0
0
0
0
0
0
0
0
0
0
0
0
0
0
0
0
0
0
0
0
0
0
0
0
0
0
0
0
0
0
1.12748e-156
-7.56871e-141
4.54788e-133
-2.59857e-129
-4.86098e-127
-4.09631e-125
-1.88177e-123
-2.96087e-122
2.54456e-120
2.58902e-118
1.42082e-116
5.84474e-115
1.97588e-113
5.73225e-112
1.46421e-110
3.35046e-109
6.95514e-108
1.3226e-106
2.32189e-105
3.78716e-104
5.7699e-103
8.24869e-102
1.1109e-100
1.41425e-99
1.70709e-98
1.959e-97
2.14238e-96
2.2376e-95
2.23629e-94
2.1424e-93
1.97054e-92
1.74266e-91
1.48372e-90
1.21765e-89
9.6426e-89
7.37555e-88
5.45391e-87
3.90194e-86
2.70282e-85
1.81377e-84
1.17978e-83
7.44133e-83
4.55263e-82
2.70215e-81
1.55597e-80
8.69085e-80
4.70668e-79
2.46968e-78
1.25411e-77
6.15197e-77
2.90725e-76
1.31789e-75
5.69126e-75
2.31378e-74
8.65896e-74
2.83628e-73
6.94598e-73
1.55706e-73
-1.358e-71
-1.26132e-70
-8.48235e-70
-4.96188e-69
-2.67051e-68
-1.35568e-67
-6.57824e-67
-3.07555e-66
-1.39272e-65
-6.13066e-65
-2.63026e-64
-1.10206e-63
-4.51648e-63
-1.81271e-62
-7.1323e-62
-2.75346e-61
-1.04374e-60
-3.88723e-60
-1.42321e-59
-5.12493e-59
-1.81592e-58
-6.33388e-58
-2.17558e-57
-7.36147e-57
-2.45463e-56
-8.06827e-56
-2.61505e-55
-8.36021e-55
-2.63704e-54
-8.20926e-54
-2.52289e-53
-7.65625e-53
-2.29495e-52
-6.79642e-52
-1.98904e-51
-5.75392e-51
-1.64566e-50
-4.65434e-50
-1.30198e-49
-3.60288e-49
-9.86425e-49
-2.67241e-48
-7.16495e-48
-1.90123e-47
-4.99337e-47
-1.29811e-46
-3.34044e-46
-8.50888e-46
-2.14545e-45
-5.3547e-45
-1.32287e-44
-3.23489e-44
-7.82984e-44
-1.87584e-43
-4.44825e-43
-1.04411e-42
-2.42594e-42
-5.57988e-42
-1.27064e-41
-2.86505e-41
-6.3977e-41
-1.4151e-40
-3.10114e-40
-6.7352e-40
-1.45012e-39
-3.09613e-39
-6.55762e-39
-1.37825e-38
-2.87541e-38
-5.95637e-38
-1.22537e-37
-2.50388e-37
-5.08205e-37
-1.02448e-36
-2.0508e-36
-4.07517e-36
-8.0346e-36
-1.57078e-35
-3.04284e-35
-5.83564e-35
-1.10694e-34
-2.07452e-34
-3.8367e-34
-6.99307e-34
-1.25432e-33
-2.21026e-33
-3.81878e-33
-6.45391e-33
-1.0638e-32
-1.70362e-32
-2.63692e-32
-3.91511e-32
-5.51016e-32
-7.20098e-32
-8.3772e-32
-7.73565e-32
-2.87104e-32
1.01608e-31
3.70573e-31
8.46796e-31
1.58511e-30
2.56164e-30
3.53857e-30
3.81871e-30
1.85312e-30
-5.29474e-30
-2.24987e-29
-5.66995e-29
-1.15548e-28
-2.02278e-28
-3.02406e-28
-3.54277e-28
-1.90079e-28
5.73894e-28
2.72901e-27
7.79053e-27
1.84897e-26
3.94923e-26
7.83707e-26
1.46788e-25
2.61709e-25
4.46186e-25
7.2885e-25
1.1406e-24
1.70617e-24
2.42748e-24
3.25484e-24
4.04269e-24
4.48884e-24
4.06261e-24
1.94077e-24
-3.00613e-24
-1.20957e-23
-2.64453e-23
-4.60974e-23
-6.83506e-23
-8.48928e-23
-7.7281e-23
-1.03465e-23
1.7665e-22
5.80698e-22
1.34601e-21
2.67182e-21
4.8107e-21
8.04695e-21
1.26399e-20
1.87116e-20
2.60527e-20
3.38225e-20
4.01205e-20
4.14299e-20
3.19681e-20
3.04791e-21
-5.73478e-20
-1.64435e-19
-3.35419e-19
-5.86499e-19
-9.27181e-19
-1.35095e-18
-1.82145e-18
-2.25381e-18
-2.4919e-18
-2.28381e-18
-1.25987e-18
1.07749e-18
5.33877e-18
1.21874e-17
2.2209e-17
3.56796e-17
5.22069e-17
7.02394e-17
8.64899e-17
9.54018e-17
8.8578e-17
5.32645e-17
-2.94062e-17
-1.87624e-16
-4.6186e-16
-8.95285e-16
-1.49147e-15
-2.15014e-15
-2.66254e-15
-2.06323e-15
2.93292e-15
1.21421e-14
1.8457e-14
1.03136e-14
-2.22723e-14
-5.87944e-14
-5.40417e-14
2.52228e-14
1.50011e-13
1.83653e-13
9.77563e-15
-3.3947e-13
-5.31996e-13
-2.20647e-13
6.52186e-13
1.42229e-12
1.03766e-12
-9.5079e-13
-3.50738e-12
-3.66517e-12
2.3587e-13
7.34537e-12
1.11998e-11
5.27802e-12
-1.19037e-11
-2.91099e-11
-2.63655e-11
7.60189e-12
6.1621e-11
8.79399e-11
4.03731e-11
-8.95146e-11
-2.28569e-10
-2.23967e-10
8.02352e-12
4.29891e-10
7.23387e-10
5.14337e-10
-3.7209e-10
-1.61592e-09
-2.15431e-09
-1.07994e-09
1.88929e-09
5.43075e-09
6.2775e-09
2.29182e-09
-7.03113e-09
-1.73789e-08
-1.8745e-08
-6.08217e-09
2.21034e-08
5.31245e-08
5.89867e-08
2.3702e-08
-5.85292e-08
-1.55979e-07
-1.92941e-07
-1.11762e-07
1.14783e-07
4.26114e-07
6.28812e-07
5.13587e-07
-4.33901e-08
-9.91458e-07
-1.92326e-06
-2.07922e-06
-1.06719e-06
1.4068e-06
4.79895e-06
7.32829e-06
6.86018e-06
2.10788e-06
-7.31787e-06
-1.91471e-05
-2.7414e-05
-2.54353e-05
-9.0064e-06
2.38938e-05
6.72326e-05
0.000104376
0.000108355
6.76732e-05
-3.316e-05
-0.000188691
-0.000363285
-0.000480497
-0.000461298
-0.000253456
0.000193847
0.000870082
0.0016609
0.00233546
0.00252337
0.00204347
0.000621002
-0.00194144
-0.00560081
-0.0100109
-0.0143926
-0.0174921
-0.0176174
-0.014237
-0.00558841
0.00984623
0.0333307
0.065706
0.107277
0.15775
0.216235
0.281307
0.351125
0.423589
0.496514
0.5678
0.63558
0.698333
0.754952
0.804764
0.847517
0.883322
0.912587
0.935929
0.954094
0.967884
0.978087
0.985442
0.990602
0.994119
0.996444
0.997933
0.998851
0.999396
0.999704
0.999869
0.99995
0.999987
0.999999
1
1
1
1
1
1
1
1
1
1
1
1
1
1
1
1
1
1
1
1
1
1
1
0.999999
0.999999
1
1
1
1
1
0.999999
0.999995
0.999993
0.999993
0.999998
1.00001
1.00002
1.00003
1.00003
1.00001
0.999976
0.999933
0.999896
0.999892
0.999933
1.00003
1.00019
1.00036
1.00048
1.00046
1.00025
0.999805
0.999129
0.998339
0.997665
0.997478
0.997959
0.999383
1.00195
1.00561
1.01002
1.01439
1.01749
1.01761
1.01422
1.00556
0.990115
0.966618
0.934231
0.89265
0.842167
0.783675
0.718599
0.64878
0.576317
0.503396
0.432116
0.364344
0.301599
0.24499
0.195187
0.152443
0.116646
0.0873883
0.0640523
0.0458914
0.0321062
0.0219056
0.0145528
0.00939517
0.00587939
0.0035545
0.00206668
0.00114822
0.000603754
0.000295836
0.000131363
4.97763e-05
1.34879e-05
1.02968e-06
5.99429e-17
5.92644e-17
5.85769e-17
5.72421e-17
5.53817e-17
5.31042e-17
5.0507e-17
4.76779e-17
4.4695e-17
4.16267e-17
3.8532e-17
3.54607e-17
3.24543e-17
2.95461e-17
2.67624e-17
2.41229e-17
2.16413e-17
1.93265e-17
1.7183e-17
1.52114e-17
1.34096e-17
1.17729e-17
1.02946e-17
8.96666e-18
7.7801e-18
6.72518e-18
5.79185e-18
4.96996e-18
4.24951e-18
3.62077e-18
3.07441e-18
2.60162e-18
2.19418e-18
1.84445e-18
1.54542e-18
1.29073e-18
1.0746e-18
8.91872e-19
7.37938e-19
6.08719e-19
5.00622e-19
4.10502e-19
3.35622e-19
2.73609e-19
2.22418e-19
1.80296e-19
1.45745e-19
1.17491e-19
9.44568e-20
7.57349e-20
6.05628e-20
4.83031e-20
3.84253e-20
3.04892e-20
2.41308e-20
1.90505e-20
1.50026e-20
1.17857e-20
9.23619e-21
7.22078e-21
5.63173e-21
4.38203e-21
3.40169e-21
2.63458e-21
2.03578e-21
1.56951e-21
1.20732e-21
9.26637e-22
7.09637e-22
5.42261e-22
4.13461e-22
3.14572e-22
2.38821e-22
1.80926e-22
1.36775e-22
1.0318e-22
7.76742e-23
5.83516e-23
4.37451e-23
3.27273e-23
2.44343e-23
1.82055e-23
1.3537e-23
1.00453e-23
7.43917e-24
5.49812e-24
4.05539e-24
2.98527e-24
2.19315e-24
1.60802e-24
1.17667e-24
8.59321e-25
6.26327e-25
4.55608e-25
3.30771e-25
2.39669e-25
1.73319e-25
1.25092e-25
9.01087e-26
6.47823e-26
4.64836e-26
3.32889e-26
2.37933e-26
1.69733e-26
1.20848e-26
8.58754e-27
6.09059e-27
4.31132e-27
3.04596e-27
2.14783e-27
1.51161e-27
1.0618e-27
7.44409e-28
5.20891e-28
3.63788e-28
2.53581e-28
1.76423e-28
1.22507e-28
)
;

boundaryField
{
    sides
    {
        type            zeroGradient;
    }
    empty
    {
        type            empty;
    }
}


// ************************************************************************* //
