/*--------------------------------*- C++ -*----------------------------------*\
| =========                 |                                                 |
| \\      /  F ield         | OpenFOAM: The Open Source CFD Toolbox           |
|  \\    /   O peration     | Version:  2312                                  |
|   \\  /    A nd           | Website:  www.openfoam.com                      |
|    \\/     M anipulation  |                                                 |
\*---------------------------------------------------------------------------*/
FoamFile
{
    version     2.0;
    format      ascii;
    arch        "LSB;label=32;scalar=64";
    class       volScalarField;
    location    "1.6";
    object      T;
}
// * * * * * * * * * * * * * * * * * * * * * * * * * * * * * * * * * * * * * //

dimensions      [0 0 0 1 0 0 0];

internalField   nonuniform List<scalar> 
1000
(
2.67787e-15
2.7073e-15
2.78876e-15
2.92372e-15
3.11462e-15
3.36489e-15
3.67905e-15
4.06272e-15
4.52279e-15
5.06747e-15
5.70648e-15
6.45116e-15
7.3147e-15
8.31233e-15
9.46161e-15
1.07827e-14
1.22985e-14
1.40355e-14
1.60238e-14
1.82975e-14
2.08957e-14
2.38627e-14
2.72492e-14
3.11123e-14
3.55172e-14
4.05379e-14
4.62582e-14
5.27732e-14
6.01909e-14
6.86334e-14
7.82392e-14
8.91652e-14
1.01589e-13
1.15711e-13
1.3176e-13
1.49991e-13
1.70696e-13
1.94204e-13
2.20886e-13
2.51161e-13
2.85503e-13
3.24447e-13
3.68596e-13
4.18632e-13
4.75322e-13
5.39532e-13
6.12238e-13
6.9454e-13
7.87677e-13
8.93044e-13
1.01221e-12
1.14695e-12
1.29924e-12
1.47132e-12
1.66571e-12
1.88524e-12
2.13308e-12
2.4128e-12
2.7284e-12
3.08438e-12
3.48579e-12
3.9383e-12
4.44826e-12
5.02278e-12
5.66985e-12
6.39842e-12
7.2185e-12
8.14131e-12
9.17942e-12
1.03469e-11
1.16594e-11
1.31346e-11
1.47921e-11
1.6654e-11
1.87447e-11
2.10917e-11
2.37257e-11
2.66808e-11
2.99951e-11
3.37114e-11
3.7877e-11
4.25449e-11
4.77741e-11
5.36304e-11
6.01869e-11
6.75252e-11
7.57361e-11
8.49206e-11
9.5191e-11
1.06672e-10
1.19503e-10
1.33839e-10
1.4985e-10
1.67727e-10
1.87683e-10
2.09951e-10
2.34792e-10
2.62495e-10
2.93382e-10
3.27806e-10
3.66163e-10
4.08888e-10
4.56464e-10
5.09427e-10
5.68368e-10
6.33943e-10
7.06876e-10
7.87969e-10
8.78107e-10
9.7827e-10
1.08954e-09
1.21311e-09
1.35029e-09
1.50255e-09
1.67149e-09
1.85887e-09
2.06666e-09
2.297e-09
2.55226e-09
2.83506e-09
3.14827e-09
3.49505e-09
3.87889e-09
4.30362e-09
4.77346e-09
5.29304e-09
5.86745e-09
6.50228e-09
7.20369e-09
7.97841e-09
8.83385e-09
9.77814e-09
1.08202e-08
1.19698e-08
1.32376e-08
1.46354e-08
1.61761e-08
1.78737e-08
1.97436e-08
2.18028e-08
2.40696e-08
2.65643e-08
2.9309e-08
3.23278e-08
3.5647e-08
3.92954e-08
4.33045e-08
4.77086e-08
5.25452e-08
5.7855e-08
6.36828e-08
7.00769e-08
7.70903e-08
8.47808e-08
9.3211e-08
1.02449e-07
1.1257e-07
1.23654e-07
1.3579e-07
1.49073e-07
1.63607e-07
1.79506e-07
1.96891e-07
2.15897e-07
2.36668e-07
2.5936e-07
2.84145e-07
3.11207e-07
3.40746e-07
3.7298e-07
4.08142e-07
4.46487e-07
4.88292e-07
5.33854e-07
5.83496e-07
6.37566e-07
6.96441e-07
7.6053e-07
8.30273e-07
9.06144e-07
9.88658e-07
1.07837e-06
1.17587e-06
1.28182e-06
1.3969e-06
1.52186e-06
1.65751e-06
1.80473e-06
1.96444e-06
2.13766e-06
2.32547e-06
2.52904e-06
2.74962e-06
2.98856e-06
3.24731e-06
3.52742e-06
3.83058e-06
4.15856e-06
4.5133e-06
4.89686e-06
5.31146e-06
5.75947e-06
6.24344e-06
6.76609e-06
7.33033e-06
7.9393e-06
8.59634e-06
9.30502e-06
1.00692e-05
1.08929e-05
1.17805e-05
1.27367e-05
1.37665e-05
1.48752e-05
1.60685e-05
1.73525e-05
1.87335e-05
2.02185e-05
2.18148e-05
2.35303e-05
2.53732e-05
2.73524e-05
2.94774e-05
3.17582e-05
3.42055e-05
3.68306e-05
3.96455e-05
4.26631e-05
4.58969e-05
4.93614e-05
5.30718e-05
5.70446e-05
6.12967e-05
6.58466e-05
7.07136e-05
7.5918e-05
8.14818e-05
8.74277e-05
9.37801e-05
0.000100565
0.000107809
0.000115541
0.000123791
0.000132592
0.000141978
0.000151983
0.000162646
0.000174006
0.000186106
0.000198989
0.000212702
0.000227293
0.000242816
0.000259322
0.00027687
0.00029552
0.000315334
0.00033638
0.000358725
0.000382444
0.000407612
0.000434311
0.000462624
0.000492641
0.000524453
0.000558157
0.000593855
0.000631653
0.000671663
0.000714
0.000758786
0.000806148
0.000856219
0.000909137
0.000965047
0.0010241
0.00108645
0.00115227
0.00122172
0.00129498
0.00137224
0.00145369
0.00153954
0.00162998
0.00172524
0.00182554
0.00193112
0.00204221
0.00215908
0.00228198
0.00241119
0.00254697
0.00268964
0.00283948
0.00299681
0.00316196
0.00333525
0.00351703
0.00370766
0.00390751
0.00411695
0.00433638
0.00456621
0.00480684
0.00505871
0.00532227
0.00559797
0.00588627
0.00618766
0.00650263
0.0068317
0.00717539
0.00753423
0.00790877
0.00829959
0.00870725
0.00913235
0.00957549
0.0100373
0.0105184
0.0110195
0.0115412
0.0120842
0.0126491
0.0132368
0.0138479
0.0144831
0.0151432
0.0158289
0.016541
0.0172804
0.0180477
0.0188439
0.0196697
0.0205259
0.0214134
0.0223331
0.0232858
0.0242723
0.0252937
0.0263506
0.0274442
0.0285751
0.0297445
0.0309531
0.0322019
0.0334919
0.0348238
0.0361988
0.0376177
0.0390814
0.040591
0.0421472
0.043751
0.0454035
0.0471054
0.0488577
0.0506614
0.0525173
0.0544262
0.0563892
0.0584071
0.0604807
0.0626108
0.0647984
0.0670442
0.069349
0.0717136
0.0741387
0.0766251
0.0791735
0.0817846
0.0844591
0.0871975
0.0900004
0.0928685
0.0958023
0.0988023
0.101869
0.105003
0.108204
0.111473
0.11481
0.118215
0.12169
0.125233
0.128844
0.132525
0.136275
0.140094
0.143982
0.147939
0.151965
0.156059
0.160221
0.164451
0.168748
0.173112
0.177543
0.182039
0.186601
0.191227
0.195917
0.200669
0.205483
0.210358
0.215293
0.220287
0.225338
0.230446
0.235608
0.240825
0.246093
0.251412
0.25678
0.262195
0.267656
0.273161
0.278708
0.284295
0.28992
0.295581
0.301276
0.307003
0.312759
0.318543
0.324351
0.330182
0.336033
0.341902
0.347785
0.353681
0.359586
0.365498
0.371415
0.377332
0.383248
0.38916
0.395064
0.400958
0.406839
0.412703
0.418548
0.42437
0.430167
0.435935
0.441671
0.447372
0.453035
0.458656
0.464233
0.469762
0.47524
0.480664
0.486031
0.491337
0.49658
0.501755
0.506861
0.511894
0.51685
0.521728
0.526523
0.531233
0.535855
0.540386
0.544823
0.549163
0.553404
0.557542
0.561575
0.565501
0.569316
0.573019
0.576606
0.580076
0.583427
0.586655
0.589759
0.592737
0.595586
0.598305
0.600893
0.603346
0.605664
0.607845
0.609887
0.61179
0.613551
0.615169
0.616645
0.617975
0.61916
0.620199
0.62109
0.621834
0.62243
0.622877
0.623176
0.623325
0.623325
0.623176
0.622877
0.62243
0.621834
0.62109
0.620199
0.61916
0.617975
0.616645
0.615169
0.613551
0.61179
0.609887
0.607845
0.605664
0.603346
0.600893
0.598305
0.595586
0.592737
0.589759
0.586655
0.583427
0.580076
0.576606
0.573019
0.569316
0.565501
0.561575
0.557542
0.553404
0.549163
0.544823
0.540386
0.535855
0.531233
0.526523
0.521728
0.51685
0.511894
0.506861
0.501755
0.49658
0.491337
0.486031
0.480664
0.47524
0.469762
0.464233
0.458656
0.453035
0.447372
0.441671
0.435935
0.430167
0.42437
0.418548
0.412703
0.406839
0.400958
0.395064
0.38916
0.383248
0.377332
0.371415
0.365498
0.359586
0.353681
0.347785
0.341902
0.336033
0.330182
0.324351
0.318543
0.312759
0.307003
0.301276
0.295581
0.28992
0.284295
0.278708
0.273161
0.267656
0.262195
0.25678
0.251412
0.246093
0.240825
0.235608
0.230446
0.225338
0.220287
0.215293
0.210358
0.205483
0.200669
0.195917
0.191227
0.186601
0.182039
0.177543
0.173112
0.168748
0.164451
0.160221
0.156059
0.151965
0.147939
0.143982
0.140094
0.136275
0.132525
0.128844
0.125233
0.12169
0.118215
0.11481
0.111473
0.108204
0.105003
0.101869
0.0988023
0.0958023
0.0928685
0.0900004
0.0871975
0.0844591
0.0817846
0.0791735
0.0766251
0.0741387
0.0717136
0.069349
0.0670442
0.0647984
0.0626108
0.0604807
0.0584071
0.0563892
0.0544262
0.0525173
0.0506614
0.0488577
0.0471054
0.0454035
0.043751
0.0421472
0.040591
0.0390814
0.0376177
0.0361988
0.0348238
0.0334919
0.0322019
0.0309531
0.0297445
0.0285751
0.0274442
0.0263506
0.0252937
0.0242723
0.0232858
0.0223331
0.0214134
0.0205259
0.0196697
0.0188439
0.0180477
0.0172804
0.016541
0.0158289
0.0151432
0.0144831
0.0138479
0.0132368
0.0126491
0.0120842
0.0115412
0.0110195
0.0105184
0.0100373
0.00957549
0.00913235
0.00870725
0.00829959
0.00790877
0.00753423
0.00717539
0.0068317
0.00650263
0.00618766
0.00588627
0.00559797
0.00532227
0.00505871
0.00480684
0.00456621
0.00433638
0.00411695
0.00390751
0.00370766
0.00351703
0.00333525
0.00316196
0.00299681
0.00283948
0.00268964
0.00254697
0.00241119
0.00228198
0.00215908
0.00204221
0.00193112
0.00182554
0.00172524
0.00162998
0.00153954
0.00145369
0.00137224
0.00129498
0.00122172
0.00115227
0.00108645
0.0010241
0.000965047
0.000909137
0.000856219
0.000806148
0.000758786
0.000714
0.000671663
0.000631653
0.000593855
0.000558157
0.000524453
0.000492641
0.000462624
0.000434311
0.000407612
0.000382444
0.000358725
0.00033638
0.000315334
0.00029552
0.00027687
0.000259322
0.000242816
0.000227293
0.000212702
0.000198989
0.000186106
0.000174006
0.000162646
0.000151983
0.000141978
0.000132592
0.000123791
0.000115541
0.000107809
0.000100565
9.37801e-05
8.74277e-05
8.14818e-05
7.5918e-05
7.07136e-05
6.58466e-05
6.12967e-05
5.70446e-05
5.30718e-05
4.93614e-05
4.58969e-05
4.26631e-05
3.96455e-05
3.68306e-05
3.42055e-05
3.17582e-05
2.94774e-05
2.73524e-05
2.53732e-05
2.35303e-05
2.18148e-05
2.02185e-05
1.87335e-05
1.73525e-05
1.60685e-05
1.48752e-05
1.37665e-05
1.27367e-05
1.17805e-05
1.08929e-05
1.00692e-05
9.30502e-06
8.59634e-06
7.9393e-06
7.33033e-06
6.76609e-06
6.24344e-06
5.75947e-06
5.31146e-06
4.89686e-06
4.5133e-06
4.15856e-06
3.83058e-06
3.52742e-06
3.24731e-06
2.98856e-06
2.74962e-06
2.52904e-06
2.32547e-06
2.13766e-06
1.96444e-06
1.80473e-06
1.65751e-06
1.52186e-06
1.3969e-06
1.28182e-06
1.17587e-06
1.07837e-06
9.88658e-07
9.06144e-07
8.30273e-07
7.6053e-07
6.96441e-07
6.37566e-07
5.83496e-07
5.33854e-07
4.88292e-07
4.46487e-07
4.08142e-07
3.7298e-07
3.40746e-07
3.11207e-07
2.84145e-07
2.5936e-07
2.36668e-07
2.15897e-07
1.96891e-07
1.79506e-07
1.63607e-07
1.49073e-07
1.3579e-07
1.23654e-07
1.1257e-07
1.02449e-07
9.3211e-08
8.47808e-08
7.70903e-08
7.00769e-08
6.36828e-08
5.7855e-08
5.25452e-08
4.77086e-08
4.33045e-08
3.92954e-08
3.5647e-08
3.23278e-08
2.9309e-08
2.65643e-08
2.40696e-08
2.18028e-08
1.97436e-08
1.78737e-08
1.61761e-08
1.46354e-08
1.32376e-08
1.19698e-08
1.08202e-08
9.77814e-09
8.83385e-09
7.97841e-09
7.20369e-09
6.50228e-09
5.86745e-09
5.29304e-09
4.77346e-09
4.30362e-09
3.87889e-09
3.49505e-09
3.14827e-09
2.83506e-09
2.55226e-09
2.297e-09
2.06666e-09
1.85887e-09
1.67149e-09
1.50255e-09
1.35029e-09
1.21311e-09
1.08954e-09
9.7827e-10
8.78107e-10
7.87969e-10
7.06876e-10
6.33943e-10
5.68368e-10
5.09427e-10
4.56464e-10
4.08888e-10
3.66163e-10
3.27806e-10
2.93382e-10
2.62495e-10
2.34792e-10
2.09951e-10
1.87683e-10
1.67727e-10
1.4985e-10
1.33839e-10
1.19503e-10
1.06672e-10
9.5191e-11
8.49206e-11
7.57361e-11
6.75252e-11
6.01869e-11
5.36304e-11
4.77741e-11
4.25449e-11
3.7877e-11
3.37114e-11
2.99951e-11
2.66808e-11
2.37257e-11
2.10917e-11
1.87447e-11
1.6654e-11
1.47921e-11
1.31346e-11
1.16594e-11
1.03469e-11
9.17942e-12
8.14131e-12
7.2185e-12
6.39842e-12
5.66985e-12
5.02278e-12
4.44826e-12
3.9383e-12
3.48579e-12
3.08438e-12
2.7284e-12
2.4128e-12
2.13308e-12
1.88524e-12
1.66571e-12
1.47132e-12
1.29924e-12
1.14695e-12
1.01221e-12
8.93044e-13
7.87677e-13
6.9454e-13
6.12238e-13
5.39532e-13
4.75322e-13
4.18632e-13
3.68596e-13
3.24447e-13
2.85503e-13
2.51161e-13
2.20886e-13
1.94204e-13
1.70696e-13
1.49991e-13
1.3176e-13
1.15711e-13
1.01589e-13
8.91652e-14
7.82392e-14
6.86334e-14
6.01909e-14
5.27732e-14
4.62582e-14
4.05379e-14
3.55172e-14
3.11123e-14
2.72492e-14
2.38627e-14
2.08957e-14
1.82975e-14
1.60238e-14
1.40355e-14
1.22985e-14
1.07827e-14
9.46161e-15
8.31233e-15
7.3147e-15
6.45116e-15
5.70648e-15
5.06747e-15
4.52279e-15
4.06272e-15
3.67905e-15
3.36489e-15
3.11462e-15
2.92372e-15
2.78876e-15
2.7073e-15
2.67787e-15
)
;

boundaryField
{
    sides
    {
        type            zeroGradient;
    }
    empty
    {
        type            empty;
    }
}


// ************************************************************************* //
