/*--------------------------------*- C++ -*----------------------------------*\
| =========                 |                                                 |
| \\      /  F ield         | OpenFOAM: The Open Source CFD Toolbox           |
|  \\    /   O peration     | Version:  2312                                  |
|   \\  /    A nd           | Website:  www.openfoam.com                      |
|    \\/     M anipulation  |                                                 |
\*---------------------------------------------------------------------------*/
FoamFile
{
    version     2.0;
    format      ascii;
    arch        "LSB;label=32;scalar=64";
    class       volScalarField;
    location    "2.2";
    object      T;
}
// * * * * * * * * * * * * * * * * * * * * * * * * * * * * * * * * * * * * * //

dimensions      [0 0 0 1 0 0 0];

internalField   nonuniform List<scalar> 
1000
(
0
0
0
0
0
0
0
0
0
0
0
0
0
0
0
0
0
0
0
0
0
0
0
0
0
0
0
0
0
0
0
0
0
0
0
0
0
0
0
0
0
0
0
0
0
0
0
0
0
0
0
0
0
0
0
0
0
0
0
0
0
0
0
0
0
0
0
0
0
0
0
0
0
0
0
0
0
0
0
0
0
0
0
0
0
0
0
0
0
0
0
0
0
0
0
0
0
0
0
0
0
0
0
0
0
0
0
0
0
0
0
0
0
0
0
0
0
0
0
0
0
0
0
0
0
0
0
0
0
0
0
0
0
0
0
0
0
0
0
0
0
0
0
0
0
0
0
0
0
0
0
0
0
0
0
0
0
0
0
0
0
0
0
0
0
0
0
0
0
0
0
0
0
0
0
0
0
0
0
0
0
0
0
0
0
0
0
0
0
0
0
0
0
0
0
0
0
0
0
0
0
0
0
0
0
0
0
0
0
0
0
0
0
0
0
0
0
0
0
0
0
0
0
0
0
0
0
0
0
0
0
0
0
0
0
0
0
0
0
0
0
0
0
0
0
0
0
0
0
0
0
0
0
0
0
0
0
0
0
0
0
0
0
0
0
0
0
0
0
0
0
0
0
0
0
0
0
0
0
0
0
0
0
0
0
0
0
0
0
0
0
0
0
0
0
0
0
0
0
0
0
0
0
0
0
0
0
0
0
0
0
0
0
0
0
0
0
0
0
0
0
0
0
0
0
0
0
0
0
0
0
0
0
0
0
0
0
0
0
0
0
0
0
0
0
0
0
0
0
0
0
0
0
0
0
0
0
0
0
0
0
0
0
0
0
0
0
0
0
0
0
0
0
0
0
0
0
0
0
0
0
0
0
0
0
0
0
0
0
0
0
0
0
0
0
0
0
0
0
0
0
0
0
0
0
0
0
0
0
0
0
0
0
0
0
0
0
0
0
0
0
0
0
0
0
0
0
0
0
0
0
0
0
0
0
0
0
0
0
0
0
0
0
0
0
0
0
0
0
0
1.50656e-63
2.12425e-61
1.49834e-59
7.04924e-58
2.48858e-56
7.03181e-55
1.6566e-53
3.34688e-52
5.91954e-51
9.3111e-50
1.31878e-48
1.69892e-47
2.00724e-46
2.19021e-45
2.22026e-44
2.10173e-43
1.86613e-42
1.56026e-41
1.23267e-40
9.23078e-40
6.57011e-39
4.45592e-38
2.88616e-37
1.78903e-36
1.0633e-35
6.06993e-35
3.33351e-34
1.76381e-33
9.00386e-33
4.44007e-32
2.11763e-31
9.77902e-31
4.37699e-30
1.90071e-29
8.01524e-29
3.28513e-28
1.30973e-27
5.08318e-27
1.92192e-26
7.08403e-26
2.54717e-25
8.94005e-25
3.06468e-24
1.02669e-23
3.3631e-23
1.07773e-22
3.38038e-22
1.03828e-21
3.12427e-21
9.21429e-21
2.66461e-20
7.55858e-20
2.10401e-19
5.74934e-19
1.54279e-18
4.06688e-18
1.05349e-17
2.68256e-17
6.71667e-17
1.65415e-16
4.00809e-16
9.55793e-16
2.24373e-15
5.18647e-15
1.1808e-14
2.64848e-14
5.85371e-14
1.27521e-13
2.73873e-13
5.79997e-13
1.21145e-12
2.49618e-12
5.07488e-12
1.01822e-11
2.01653e-11
3.94273e-11
7.61194e-11
1.45137e-10
2.73351e-10
5.0862e-10
9.35127e-10
1.69911e-09
3.05148e-09
5.41762e-09
9.50997e-09
1.65077e-08
2.83394e-08
4.81232e-08
8.08422e-08
1.34369e-07
2.21001e-07
3.59734e-07
5.79581e-07
9.24375e-07
1.4596e-06
2.28207e-06
3.53328e-06
5.41796e-06
8.22907e-06
1.23815e-05
1.84564e-05
2.72599e-05
3.98978e-05
5.7872e-05
8.32009e-05
0.000118569
0.000167511
0.000234633
0.000325875
0.00044882
0.000613047
0.000830538
0.00111612
0.00148795
0.00196803
0.00258277
0.00336347
0.00434691
0.00557575
0.00709898
0.00897221
0.0112578
0.0140249
0.017349
0.021312
0.0260006
0.0315062
0.037923
0.0453465
0.0538717
0.0635911
0.074592
0.0869543
0.100748
0.116031
0.132845
0.151215
0.171149
0.192631
0.215624
0.24007
0.265887
0.292973
0.321201
0.350429
0.380497
0.411229
0.44244
0.473937
0.505522
0.536998
0.56817
0.598853
0.628868
0.658052
0.686257
0.713353
0.739228
0.763792
0.786973
0.808723
0.829011
0.847827
0.865178
0.881088
0.895593
0.908744
0.9206
0.931231
0.940709
0.949115
0.956529
0.963032
0.968706
0.973631
0.977882
0.981533
0.984651
0.987301
0.989542
0.991426
0.993003
0.994315
0.995403
0.996299
0.997034
0.997633
0.99812
0.998513
0.99883
0.999083
0.999284
0.999444
0.999569
0.999668
0.999744
0.999803
0.999847
0.99988
0.999904
0.999919
0.999926
0.999925
0.999916
0.999898
0.999867
0.999822
0.999758
0.999669
0.999547
0.999384
0.999167
0.998882
0.998511
0.998031
0.997417
0.996636
0.995653
0.994424
0.992901
0.991028
0.988742
0.985975
0.982651
0.978688
0.973999
0.968494
0.962077
0.954654
0.946128
0.936409
0.925408
0.913046
0.899252
0.883969
0.867155
0.848785
0.828851
0.807369
0.784376
0.75993
0.734113
0.707027
0.678799
0.649571
0.619503
0.588771
0.55756
0.526063
0.494478
0.463002
0.43183
0.401147
0.371132
0.341948
0.313743
0.286647
0.260772
0.236208
0.213027
0.191277
0.170989
0.152173
0.134822
0.118912
0.104407
0.0912562
0.0793997
0.0687693
0.0592906
0.0508849
0.0434713
0.036968
0.0312937
0.0263692
0.0221179
0.0184673
0.0153488
0.0126987
0.0104583
0.00857395
0.00699721
0.00568456
0.00459726
0.00370115
0.0029663
0.00236668
0.00187981
0.00148643
0.00117013
0.000917052
0.000715527
0.000555823
0.000429866
0.000330996
0.000253752
0.000193687
0.000147199
0.000111385
8.39214e-05
6.29581e-05
4.70294e-05
3.49811e-05
2.5909e-05
1.91086e-05
1.40337e-05
1.02634e-05
7.47466e-06
5.42101e-06
3.9153e-06
2.81614e-06
2.01721e-06
1.43902e-06
1.02237e-06
7.23406e-07
5.09793e-07
3.5781e-07
2.5013e-07
1.74156e-07
1.20776e-07
8.34248e-08
5.73976e-08
3.93352e-08
2.68513e-08
1.8258e-08
1.23666e-08
8.34384e-09
5.60797e-09
3.75472e-09
2.5043e-09
1.66396e-09
1.10141e-09
7.26299e-10
4.77142e-10
3.12285e-10
2.03627e-10
1.32283e-10
8.56184e-11
5.52114e-11
3.54728e-11
2.27078e-11
1.44835e-11
9.20446e-12
5.82847e-12
3.67747e-12
2.312e-12
1.44836e-12
9.04117e-13
5.62388e-13
3.48591e-13
2.15315e-13
1.32529e-13
8.12905e-14
4.96891e-14
3.0268e-14
1.83744e-14
1.11161e-14
6.70214e-15
4.02715e-15
2.41164e-15
1.43934e-15
8.56159e-16
5.07568e-16
2.99908e-16
1.7662e-16
1.03671e-16
6.06519e-17
3.53677e-17
2.05566e-17
1.19092e-17
6.87714e-18
3.95849e-18
2.2712e-18
1.29894e-18
7.40522e-19
4.20829e-19
2.38395e-19
1.34623e-19
7.57841e-20
4.25281e-20
2.37913e-20
1.32682e-20
7.37671e-21
4.08858e-21
2.25917e-21
1.2445e-21
6.83469e-22
3.74216e-22
2.04273e-22
1.11171e-22
6.03206e-23
3.26318e-23
1.76003e-23
9.46476e-24
5.07473e-24
2.71291e-24
1.44605e-24
7.68524e-25
4.07254e-25
2.15184e-25
1.1337e-25
5.95569e-26
3.11973e-26
1.62951e-26
8.4871e-27
4.40782e-27
2.28275e-27
1.17887e-27
6.07086e-28
3.11758e-28
1.5965e-28
8.15291e-29
4.15193e-29
2.10856e-29
1.06789e-29
5.39352e-30
2.71663e-30
1.36459e-30
6.83591e-31
3.41517e-31
1.70159e-31
8.45535e-32
4.19027e-32
2.07106e-32
1.02091e-32
5.01912e-33
2.46105e-33
1.20356e-33
5.87048e-34
2.8559e-34
1.38573e-34
6.70633e-35
3.23717e-35
1.55856e-35
7.48451e-36
3.58499e-36
1.71278e-36
8.16223e-37
3.87982e-37
1.83956e-37
8.70004e-38
4.10426e-38
1.93134e-38
9.0656e-39
4.24475e-39
1.98257e-39
9.23698e-40
4.29299e-40
1.99031e-40
9.20483e-41
4.24668e-41
1.95445e-41
8.97318e-42
4.10975e-42
1.87774e-42
8.55877e-43
3.89175e-43
1.76539e-43
7.98916e-44
3.60686e-44
1.62453e-44
7.29966e-45
3.27231e-45
1.46348e-45
6.52984e-46
2.90674e-46
1.29092e-46
5.71986e-47
2.52853e-47
1.11519e-47
4.90721e-48
2.15439e-48
9.43678e-49
4.12414e-49
1.79828e-49
7.82348e-50
3.39596e-50
1.47078e-50
6.35564e-51
2.74031e-51
1.17889e-51
5.06035e-52
2.16734e-52
9.26216e-53
3.9495e-53
1.68042e-53
7.13415e-54
3.02217e-54
1.27747e-54
5.38813e-55
2.26771e-55
9.52353e-56
3.99094e-56
1.66886e-56
6.96364e-57
2.89952e-57
1.20474e-57
4.99501e-58
2.06663e-58
8.53245e-59
3.51537e-59
1.4453e-59
5.92976e-60
2.42778e-60
9.91929e-61
4.04437e-61
1.64559e-61
6.6819e-62
2.7076e-62
1.09491e-62
4.41859e-63
1.77953e-63
7.15224e-64
2.8688e-64
1.14836e-64
4.58757e-65
1.829e-65
7.27735e-66
2.88978e-66
1.14522e-66
4.52952e-67
1.78794e-67
7.04361e-68
2.76937e-68
1.0867e-68
4.25589e-69
1.66349e-69
6.48935e-70
2.52661e-70
9.81821e-71
3.8079e-71
1.47401e-71
5.69483e-72
2.19597e-72
8.45161e-73
3.24656e-73
1.24475e-73
4.76336e-74
1.81938e-74
6.93603e-75
2.63925e-75
1.00238e-75
3.79991e-76
1.43781e-76
5.43023e-77
2.04705e-77
7.70249e-78
2.89288e-78
1.0845e-78
4.05815e-79
)
;

boundaryField
{
    sides
    {
        type            zeroGradient;
    }
    empty
    {
        type            empty;
    }
}


// ************************************************************************* //
