/*--------------------------------*- C++ -*----------------------------------*\
| =========                 |                                                 |
| \\      /  F ield         | OpenFOAM: The Open Source CFD Toolbox           |
|  \\    /   O peration     | Version:  2312                                  |
|   \\  /    A nd           | Website:  www.openfoam.com                      |
|    \\/     M anipulation  |                                                 |
\*---------------------------------------------------------------------------*/
FoamFile
{
    version     2.0;
    format      ascii;
    arch        "LSB;label=32;scalar=64";
    class       volScalarField;
    location    "0.3";
    object      T;
}
// * * * * * * * * * * * * * * * * * * * * * * * * * * * * * * * * * * * * * //

dimensions      [0 0 0 1 0 0 0];

internalField   nonuniform List<scalar> 
1000
(
0
0
0
0
0
0
0
0
0
0
0
0
0
0
0
0
0
0
0
0
0
0
0
0
0
0
0
0
0
0
0
0
0
0
0
0
0
0
0
0
0
0
0
0
0
0
0
0
0
0
0
0
0
0
0
0
0
0
0
0
0
0
0
0
0
0
0
0
0
0
0
0
0
0
0
0
0
0
0
0
0
0
0
0
0
0
0
0
0
0
0
0
0
0
0
0
0
0
0
0
0
0
0
0
0
0
0
0
0
0
0
0
0
0
0
0
0
0
0
0
0
0
0
0
0
0
0
0
0
0
0
0
0
0
0
0
0
0
0
0
0
0
0
0
0
0
0
0
0
0
0
0
0
0
0
0
0
0
0
0
0
0
0
0
0
0
0
0
0
0
0
0
0
0
0
0
0
0
0
0
0
0
0
0
0
0
0
0
0
0
0
0
0
0
0
0
0
0
0
0
0
0
0
0
0
0
0
0
0
0
0
0
0
0
0
0
0
0
0
0
0
0
0
0
0
0
0
0
0
0
0
0
0
0
0
0
0
0
0
0
0
0
0
0
0
0
0
0
0
0
0
0
0
0
0
0
0
0
0
0
0
0
0
0
0
0
0
0
0
0
0
0
0
0
0
0
0
0
0
0
0
0
0
0
0
0
0
0
0
0
0
0
0
0
0
0
0
0
0
0
0
0
0
0
0
0
0
0
0
0
0
0
0
0
0
0
0
0
0
0
0
0
0
0
0
0
0
0
0
0
0
0
0
0
0
0
0
0
0
0
0
0
0
0
0
0
0
0
0
0
0
0
0
0
0
0
0
0
0
0
0
0
0
0
0
0
0
0
0
0
0
0
0
0
0
0
0
0
0
0
0
0
0
0
0
0
0
0
0
0
0
0
0
0
0
0
0
0
0
0
0
0
0
0
0
0
0
0
0
0
0
0
0
0
0
0
0
0
0
0
0
0
0
0
0
0
0
0
0
0
0
0
0
0
0
0
0
0
0
0
0
0
0
0
0
0
0
0
0
0
2.71245e-09
5.44956e-08
5.50437e-07
3.72747e-06
1.90422e-05
7.82963e-05
0.000269974
0.000803188
0.00210532
0.00494107
0.0105172
0.0205173
0.03701
0.0621988
0.0980356
0.145775
0.205584
0.276332
0.355619
0.440066
0.525779
0.608896
0.68607
0.754825
0.81371
0.862274
0.900904
0.930586
0.952645
0.968522
0.979602
0.987108
0.992049
0.995212
0.997183
0.99838
0.999089
0.999499
0.99973
0.999858
0.999926
0.999963
0.999981
0.999991
0.999996
0.999998
0.999999
1
1
1
1
1
1
1
1
1
1
1
1
1
1
1
1
1
1
1
1
1
1
1
1
1
1
1
1
1
1
1
1
1
1
1
1
1
1
1
1
1
1
1
1
1
1
1
1
1
1
1
1
1
1
1
0.999999
0.999996
0.999981
0.999922
0.99973
0.999197
0.997895
0.995059
0.989483
0.979483
0.96299
0.937801
0.901964
0.854225
0.794416
0.723668
0.644381
0.559934
0.474221
0.391104
0.31393
0.245175
0.18629
0.137726
0.0990955
0.0694139
0.047355
0.0314782
0.020398
0.0128921
0.00795148
0.00478837
0.00281692
0.00161971
0.000910759
0.000501065
0.000269852
0.000142335
7.35624e-05
3.72701e-05
1.85191e-05
9.02864e-06
4.32066e-06
2.03039e-06
9.3731e-07
4.25232e-07
1.89656e-07
8.31886e-08
3.58975e-08
1.52445e-08
6.37315e-09
2.62374e-09
1.06401e-09
4.2516e-10
1.67444e-10
6.50151e-11
2.48945e-11
9.4026e-12
3.50395e-12
1.28866e-12
4.67836e-13
1.67695e-13
5.93632e-14
2.07576e-14
7.17119e-15
2.44821e-15
8.26103e-16
2.7557e-16
9.08919e-17
2.96477e-17
9.5655e-18
3.05316e-18
9.64251e-19
3.0137e-19
9.32285e-20
2.85499e-20
8.6563e-21
2.59894e-21
7.72789e-22
2.27607e-22
6.64095e-23
1.91979e-23
5.49935e-24
1.5612e-24
4.39292e-25
1.22531e-25
3.38833e-26
9.29026e-27
2.52592e-27
6.81096e-28
1.82156e-28
4.83247e-29
1.27184e-29
3.32106e-30
8.60491e-31
2.2125e-31
5.64583e-32
1.42996e-32
3.59506e-33
8.97261e-34
2.2233e-34
5.46993e-35
1.33631e-35
3.24197e-36
7.81129e-37
1.86933e-37
4.44353e-38
1.04927e-38
2.46145e-39
5.73689e-40
1.32854e-40
3.05712e-41
6.99074e-42
1.58868e-42
3.58825e-43
8.05544e-44
1.79757e-44
3.98747e-45
8.79334e-46
1.92789e-46
4.20248e-47
9.10865e-48
1.96314e-48
4.20748e-49
8.96792e-50
1.90101e-50
4.00796e-51
8.4049e-52
1.75321e-52
3.63792e-53
7.50949e-54
1.54215e-54
3.15084e-55
6.40514e-56
1.29555e-56
2.60751e-57
5.22232e-58
1.04084e-58
2.06449e-59
4.07533e-60
8.00678e-61
1.56572e-61
3.04757e-62
5.90461e-63
1.13879e-63
2.18643e-64
4.17905e-65
7.95224e-66
1.50657e-66
2.84178e-67
5.3372e-68
9.98096e-69
1.85859e-69
3.44638e-70
6.36396e-71
1.17028e-71
2.14323e-72
3.90909e-73
7.10113e-74
1.28481e-74
2.31538e-75
4.15618e-76
7.43135e-77
1.3236e-77
2.34842e-78
4.15084e-79
7.30891e-80
1.28215e-80
2.24082e-81
3.90184e-82
6.76923e-83
1.17012e-83
2.01536e-84
3.45875e-85
5.91485e-86
1.00794e-86
1.71162e-87
2.89649e-88
4.88472e-89
8.20959e-90
1.37508e-90
2.29548e-91
3.81913e-92
6.33308e-93
1.04673e-93
1.72438e-94
2.83154e-95
4.63459e-96
7.56155e-97
1.22979e-97
1.9938e-98
3.22235e-99
5.19174e-100
8.33899e-101
1.33531e-101
2.13172e-102
3.39286e-103
5.38391e-104
8.51797e-105
1.34366e-105
2.11332e-106
3.31418e-107
5.18235e-108
8.08029e-109
1.25628e-109
1.94765e-110
3.01101e-111
4.6419e-112
7.13627e-113
1.09407e-113
1.67274e-114
2.5505e-115
3.87835e-116
5.88163e-117
8.89586e-118
1.34191e-118
2.01889e-119
3.02945e-120
4.53402e-121
6.76827e-122
1.00775e-122
1.49665e-123
2.2171e-124
3.27607e-125
4.82871e-126
7.09949e-127
1.04123e-127
1.52335e-128
2.22325e-129
3.23684e-130
4.70117e-131
6.81156e-132
9.84582e-133
1.4198e-133
2.04257e-134
2.93164e-135
4.19791e-136
5.99721e-137
8.54804e-138
1.2156e-138
1.72475e-139
2.44164e-140
3.44874e-141
4.86037e-142
6.8346e-143
9.58957e-144
1.34255e-144
1.8755e-145
2.61432e-146
3.63635e-147
5.04708e-148
6.99019e-149
9.6609e-150
1.33239e-150
1.83372e-151
2.51844e-152
3.45167e-153
4.72098e-154
6.44384e-155
8.77755e-156
1.19322e-156
1.61881e-157
2.19179e-158
2.96167e-159
3.99405e-160
5.3757e-161
7.22113e-162
9.68119e-163
1.29542e-163
1.73003e-164
2.30604e-165
3.06796e-166
4.07388e-167
5.39943e-168
7.14287e-169
9.43163e-170
1.24307e-170
1.63531e-171
2.14737e-172
2.81462e-173
3.68251e-174
4.8093e-175
6.26958e-176
8.15865e-177
1.0598e-177
1.37424e-178
1.77883e-179
2.2985e-180
2.96481e-181
3.81765e-182
4.90733e-183
6.29722e-184
8.06697e-185
1.03165e-185
1.31711e-186
1.67872e-187
2.13604e-188
2.71341e-189
3.44113e-190
4.35683e-191
5.50716e-192
6.94984e-193
8.75621e-194
1.10143e-194
1.38323e-195
1.73436e-196
2.17116e-197
2.71365e-198
3.38635e-199
4.21917e-200
5.2486e-201
6.51905e-202
8.0845e-203
1.00104e-203
1.23762e-204
1.52776e-205
1.88307e-206
2.31751e-207
2.84789e-208
3.49441e-209
4.28131e-210
5.23764e-211
6.39814e-212
7.80429e-213
9.50555e-214
1.15608e-214
1.40402e-215
1.70266e-216
2.06187e-217
2.49329e-218
3.01069e-219
3.63032e-220
4.37131e-221
5.25615e-222
6.31129e-223
7.56771e-224
9.0617e-225
1.08357e-225
1.29392e-226
1.54299e-227
1.83751e-228
2.18529e-229
2.59539e-230
3.07832e-231
3.64624e-232
4.31319e-233
5.09538e-234
6.0115e-235
7.08302e-236
8.33464e-237
9.79468e-238
1.14956e-238
1.34745e-239
1.57737e-240
1.84418e-241
2.15337e-242
2.51121e-243
2.92482e-244
3.40227e-245
3.95272e-246
4.58651e-247
5.31532e-248
6.15234e-249
7.11241e-250
8.21223e-251
9.47056e-252
1.09084e-252
1.25495e-253
1.44199e-254
1.65494e-255
1.89706e-256
2.17201e-257
2.48388e-258
2.83717e-259
3.23691e-260
3.68866e-261
4.19855e-262
4.77339e-263
5.42066e-264
6.14862e-265
6.96635e-266
7.88382e-267
8.912e-268
1.00629e-268
1.13495e-269
1.27863e-270
1.4389e-271
1.61744e-272
1.81612e-273
2.03696e-274
2.28213e-275
2.55402e-276
2.85517e-277
3.18836e-278
3.55659e-279
3.96305e-280
4.41123e-281
4.90483e-282
5.44786e-283
6.04457e-284
6.69955e-285
7.41769e-286
8.20418e-287
9.06457e-288
1.00048e-288
1.1031e-289
1.215e-290
1.33687e-291
1.46945e-292
1.61354e-293
1.76995e-294
1.93955e-295
2.12326e-296
2.32203e-297
2.53686e-298
2.7688e-299
3.01894e-300
3.28842e-301
3.57842e-302
3.89016e-303
4.22491e-304
4.58399e-305
4.96876e-306
5.3806e-307
5.82095e-308
6.29129e-309
6.79311e-310
7.32797e-311
7.89741e-312
8.50304e-313
9.14647e-314
9.82933e-315
1.05533e-315
1.132e-316
1.21311e-317
1.2988e-318
1.38926e-319
1.48417e-320
1.59089e-321
1.67982e-322
1.4822e-323
0
0
0
0
0
0
0
)
;

boundaryField
{
    sides
    {
        type            zeroGradient;
    }
    empty
    {
        type            empty;
    }
}


// ************************************************************************* //
