/*--------------------------------*- C++ -*----------------------------------*\
| =========                 |                                                 |
| \\      /  F ield         | OpenFOAM: The Open Source CFD Toolbox           |
|  \\    /   O peration     | Version:  2312                                  |
|   \\  /    A nd           | Website:  www.openfoam.com                      |
|    \\/     M anipulation  |                                                 |
\*---------------------------------------------------------------------------*/
FoamFile
{
    version     2.0;
    format      ascii;
    arch        "LSB;label=32;scalar=64";
    class       volScalarField;
    location    "4.2";
    object      T;
}
// * * * * * * * * * * * * * * * * * * * * * * * * * * * * * * * * * * * * * //

dimensions      [0 0 0 1 0 0 0];

internalField   nonuniform List<scalar> 
1000
(
0
0
0
0
0
0
0
0
0
0
0
0
0
0
0
0
0
0
0
0
0
0
0
0
0
0
0
0
0
0
0
0
0
0
0
0
0
0
0
0
0
0
0
0
0
0
0
0
0
0
0
0
0
0
0
0
0
0
0
0
0
0
0
0
0
0
0
0
0
0
0
0
0
0
0
0
0
0
0
0
0
0
0
0
0
0
0
0
0
0
0
0
0
0
0
0
0
0
0
0
0
0
0
0
0
0
0
0
0
0
0
0
0
0
0
0
0
0
0
0
0
0
0
0
0
0
0
0
0
0
0
0
0
0
0
0
0
0
0
0
0
0
0
0
0
0
0
0
0
0
0
0
0
0
0
0
0
0
0
0
0
0
0
0
0
0
0
0
0
0
0
0
0
0
0
0
0
0
0
0
0
0
0
0
0
0
0
0
0
0
0
0
0
0
0
0
0
0
0
0
0
0
0
0
0
0
0
0
0
0
0
0
0
0
0
0
0
0
0
0
0
0
0
0
0
0
0
0
0
3.52763e-321
2.56993e-319
1.8324e-317
1.30051e-315
9.19006e-314
6.46584e-312
4.52923e-310
3.1587e-308
2.19314e-306
1.51597e-304
1.04321e-302
7.14655e-301
4.8737e-299
3.30862e-297
2.2359e-295
1.50406e-293
1.0071e-291
6.71226e-290
4.45287e-288
2.9402e-286
1.93228e-284
1.26388e-282
8.22766e-281
5.33053e-279
3.43697e-277
2.20538e-275
1.40825e-273
8.94861e-272
5.65846e-270
3.56039e-268
2.22915e-266
1.38872e-264
8.60819e-263
5.30905e-261
3.25775e-259
1.98886e-257
1.20798e-255
7.29924e-254
4.38774e-252
2.62385e-250
1.56084e-248
9.23601e-247
5.43633e-245
3.18279e-243
1.85344e-241
1.07351e-239
6.18401e-238
3.54293e-236
2.01868e-234
1.14385e-232
6.44548e-231
3.61169e-229
2.01243e-227
1.11498e-225
6.14245e-224
3.36452e-222
1.83231e-220
9.92088e-219
5.34029e-217
2.85775e-215
1.52024e-213
8.03924e-212
4.22584e-210
2.20795e-208
1.14665e-206
5.91853e-205
3.03616e-203
1.54791e-201
7.84257e-200
3.94861e-198
1.97553e-196
9.82112e-195
4.85126e-193
2.38093e-191
1.16096e-189
5.62399e-188
2.70652e-186
1.29389e-184
6.14441e-183
2.89828e-181
1.35786e-179
6.31839e-178
2.91991e-176
1.34006e-174
6.10724e-173
2.76383e-171
1.24194e-169
5.54102e-168
2.45445e-166
1.07937e-164
4.71207e-163
2.042e-161
8.78368e-160
3.75015e-158
1.58908e-156
6.68256e-155
2.78876e-153
1.15485e-151
4.74522e-150
1.93453e-148
7.82451e-147
3.13956e-145
1.24964e-143
4.93367e-142
1.93196e-140
7.50305e-139
2.88972e-137
1.10362e-135
4.17926e-134
1.56913e-132
5.84074e-131
2.1552e-129
7.88291e-128
2.85777e-126
1.02677e-124
3.65586e-123
1.28984e-121
4.50895e-120
1.5616e-118
5.35766e-117
1.82077e-115
6.12868e-114
2.043e-112
6.74398e-111
2.20428e-109
7.13302e-108
2.28503e-106
7.24563e-105
2.27393e-103
7.06232e-102
2.17038e-100
6.5992e-99
1.98501e-97
5.90606e-96
1.73796e-94
5.0575e-93
1.45522e-91
4.13958e-90
1.16403e-88
3.23511e-87
8.88522e-86
2.41123e-84
6.46449e-83
1.71194e-81
4.47747e-80
1.15637e-78
2.94853e-77
7.42142e-76
1.84359e-74
4.51919e-73
1.09293e-71
2.60724e-70
6.13393e-69
1.42291e-67
3.25394e-66
7.33402e-65
1.62884e-63
3.56387e-62
7.68015e-61
1.62974e-59
3.40457e-58
6.99983e-57
1.41606e-55
2.81789e-54
5.51435e-53
1.06088e-51
2.00589e-50
3.72634e-49
6.79911e-48
1.21806e-46
2.14183e-45
3.69524e-44
6.25284e-43
1.03734e-41
1.68655e-40
2.68613e-39
4.18905e-38
6.39387e-37
9.54699e-36
1.39382e-34
1.98864e-33
2.77127e-32
3.76988e-31
5.00312e-30
6.4736e-29
8.16124e-28
1.00177e-26
1.19637e-25
1.38903e-24
1.56658e-23
1.71479e-22
1.82009e-21
1.87143e-20
1.86211e-19
1.79107e-18
1.66336e-17
1.48963e-16
1.28472e-15
1.0655e-14
8.48473e-14
6.47643e-13
4.73002e-12
3.29889e-11
2.19245e-10
1.38528e-09
8.30025e-09
4.7031e-08
2.5124e-07
1.26107e-06
5.92546e-06
2.59561e-05
0.000105512
0.000396008
0.00136458
0.00429042
0.012226
0.0313518
0.0718293
0.146061
0.262342
0.415746
0.584254
0.737658
0.853939
0.928171
0.968648
0.987774
0.99571
0.998635
0.999604
0.999894
0.999974
0.999994
0.999999
1
1
1
1
1
1
1
1
1
1
1
1
1
1
1
1
1
1
1
1
1
1
1
1
1
1
1
1
1
1
1
1
1
1
1
1
1
1
1
1
1
1
1
1
1
1
1
1
1
1
1
1
1
1
1
1
1
1
1
1
1
1
1
1
1
1
1
1
1
1
1
1
1
1
0.999999
0.999994
0.999974
0.999894
0.999604
0.998635
0.99571
0.987774
0.968648
0.928171
0.853939
0.737658
0.584254
0.415746
0.262342
0.146061
0.0718293
0.0313518
0.012226
0.00429042
0.00136458
0.000396008
0.000105512
2.59561e-05
5.92546e-06
1.26107e-06
2.5124e-07
4.7031e-08
8.30025e-09
1.38528e-09
2.19245e-10
3.29889e-11
4.73002e-12
6.47643e-13
8.48473e-14
1.0655e-14
1.28472e-15
1.48963e-16
1.66336e-17
1.79107e-18
1.86211e-19
1.87143e-20
1.82009e-21
1.71479e-22
1.56658e-23
1.38903e-24
1.19637e-25
1.00177e-26
8.16124e-28
6.4736e-29
5.00312e-30
3.76988e-31
2.77127e-32
1.98864e-33
1.39382e-34
9.54699e-36
6.39387e-37
4.18905e-38
2.68613e-39
1.68655e-40
1.03734e-41
6.25284e-43
3.69524e-44
2.14183e-45
1.21806e-46
6.79911e-48
3.72634e-49
2.00589e-50
1.06088e-51
5.51435e-53
2.81789e-54
1.41606e-55
6.99983e-57
3.40457e-58
1.62974e-59
7.68015e-61
3.56387e-62
1.62884e-63
7.33402e-65
3.25394e-66
1.42291e-67
6.13393e-69
2.60724e-70
1.09293e-71
4.51919e-73
1.84359e-74
7.42142e-76
2.94853e-77
1.15637e-78
4.47747e-80
1.71194e-81
6.46449e-83
2.41123e-84
8.88522e-86
3.23511e-87
1.16403e-88
4.13958e-90
1.45522e-91
5.0575e-93
1.73796e-94
5.90606e-96
1.98501e-97
6.5992e-99
2.17038e-100
7.06232e-102
2.27393e-103
7.24563e-105
2.28503e-106
7.13302e-108
2.20428e-109
6.74398e-111
2.043e-112
6.12868e-114
1.82077e-115
5.35766e-117
1.5616e-118
4.50895e-120
1.28984e-121
3.65586e-123
1.02677e-124
2.85777e-126
7.88291e-128
2.1552e-129
5.84074e-131
1.56913e-132
4.17926e-134
1.10362e-135
2.88972e-137
7.50305e-139
1.93196e-140
4.93367e-142
1.24964e-143
3.13956e-145
7.82451e-147
1.93453e-148
4.74522e-150
1.15485e-151
2.78876e-153
6.68256e-155
1.58908e-156
3.75015e-158
8.78368e-160
2.042e-161
4.71207e-163
1.07937e-164
2.45445e-166
5.54102e-168
1.24194e-169
2.76383e-171
6.10724e-173
1.34006e-174
2.91991e-176
6.31839e-178
1.35786e-179
2.89828e-181
6.14441e-183
1.29389e-184
2.70652e-186
5.62399e-188
1.16096e-189
2.38093e-191
4.85126e-193
9.82112e-195
1.97553e-196
3.94861e-198
7.84257e-200
1.54791e-201
3.03616e-203
5.91853e-205
1.14665e-206
2.20795e-208
4.22584e-210
8.03924e-212
1.52024e-213
2.85775e-215
5.34029e-217
9.92088e-219
1.83231e-220
3.36452e-222
6.14245e-224
1.11498e-225
2.01243e-227
3.61169e-229
6.44548e-231
1.14385e-232
2.01868e-234
3.54293e-236
6.18401e-238
1.07351e-239
1.85344e-241
3.18279e-243
5.43633e-245
9.23601e-247
1.56084e-248
2.62385e-250
4.38774e-252
7.29924e-254
1.20798e-255
1.98886e-257
3.25775e-259
5.30905e-261
8.60819e-263
1.38872e-264
2.22915e-266
3.56039e-268
5.65846e-270
8.94861e-272
1.40825e-273
2.20538e-275
3.43697e-277
5.33053e-279
8.22766e-281
1.26388e-282
1.93228e-284
2.9402e-286
4.45287e-288
6.71226e-290
1.0071e-291
1.50406e-293
2.2359e-295
3.30862e-297
4.8737e-299
7.14655e-301
1.04321e-302
1.51597e-304
2.19314e-306
3.1587e-308
4.52923e-310
6.46584e-312
9.19006e-314
1.30051e-315
1.8324e-317
2.56993e-319
3.52763e-321
0
0
0
0
0
0
0
0
0
0
0
0
0
0
0
0
0
0
0
0
0
0
0
0
0
0
0
0
0
0
0
0
0
0
0
0
0
0
0
0
0
0
0
0
0
0
0
0
0
0
0
0
0
0
0
0
0
0
0
0
0
0
0
0
0
0
0
0
0
0
0
0
0
0
0
0
0
0
0
0
0
0
0
0
0
0
0
0
0
0
0
0
0
0
0
0
0
0
0
0
0
0
0
0
0
0
0
0
0
0
0
0
0
0
0
0
0
0
0
0
0
0
0
0
0
0
0
0
0
0
0
0
0
0
0
0
0
0
0
0
0
0
0
0
0
0
0
0
0
0
0
0
0
0
0
0
0
0
0
0
0
0
0
0
0
0
0
0
0
0
0
0
0
0
0
0
0
0
0
0
0
0
0
0
0
0
0
0
0
0
0
0
0
0
0
0
0
0
0
0
0
0
0
0
0
0
0
0
0
0
0
0
0
0
0
0
0
0
0
0
0
0
0
0
0
0
0
0
0
)
;

boundaryField
{
    sides
    {
        type            zeroGradient;
    }
    empty
    {
        type            empty;
    }
}


// ************************************************************************* //
