/*--------------------------------*- C++ -*----------------------------------*\
| =========                 |                                                 |
| \\      /  F ield         | OpenFOAM: The Open Source CFD Toolbox           |
|  \\    /   O peration     | Version:  2312                                  |
|   \\  /    A nd           | Website:  www.openfoam.com                      |
|    \\/     M anipulation  |                                                 |
\*---------------------------------------------------------------------------*/
FoamFile
{
    version     2.0;
    format      ascii;
    arch        "LSB;label=32;scalar=64";
    class       volScalarField;
    location    "4.7";
    object      T;
}
// * * * * * * * * * * * * * * * * * * * * * * * * * * * * * * * * * * * * * //

dimensions      [0 0 0 1 0 0 0];

internalField   nonuniform List<scalar> 
1000
(
3.56592e-06
3.57075e-06
3.58404e-06
3.60582e-06
3.63613e-06
3.67503e-06
3.72259e-06
3.77891e-06
3.84409e-06
3.91827e-06
4.00159e-06
4.09421e-06
4.19631e-06
4.30808e-06
4.42975e-06
4.56154e-06
4.70371e-06
4.85653e-06
5.0203e-06
5.19533e-06
5.38195e-06
5.58052e-06
5.79141e-06
6.01501e-06
6.25176e-06
6.50209e-06
6.76648e-06
7.04542e-06
7.33942e-06
7.64902e-06
7.97481e-06
8.31738e-06
8.67736e-06
9.05539e-06
9.45218e-06
9.86843e-06
1.03049e-05
1.07624e-05
1.12417e-05
1.17436e-05
1.22692e-05
1.28192e-05
1.33946e-05
1.39965e-05
1.46259e-05
1.5284e-05
1.59717e-05
1.66903e-05
1.74411e-05
1.82253e-05
1.90442e-05
1.98993e-05
2.07918e-05
2.17234e-05
2.26956e-05
2.37099e-05
2.47681e-05
2.58718e-05
2.70229e-05
2.82231e-05
2.94745e-05
3.07791e-05
3.21388e-05
3.35559e-05
3.50326e-05
3.65711e-05
3.8174e-05
3.98435e-05
4.15824e-05
4.33933e-05
4.52789e-05
4.72421e-05
4.92858e-05
5.14131e-05
5.36272e-05
5.59312e-05
5.83287e-05
6.08231e-05
6.3418e-05
6.61171e-05
6.89245e-05
7.18439e-05
7.48797e-05
7.80361e-05
8.13175e-05
8.47284e-05
8.82737e-05
9.19582e-05
9.57869e-05
9.9765e-05
0.000103898
0.000108191
0.000112651
0.000117282
0.000122092
0.000127086
0.000132272
0.000137654
0.000143242
0.000149041
0.00015506
0.000161305
0.000167785
0.000174508
0.000181481
0.000188715
0.000196216
0.000203996
0.000212062
0.000220425
0.000229095
0.000238082
0.000247396
0.000257049
0.000267051
0.000277415
0.000288152
0.000299274
0.000310794
0.000322724
0.000335079
0.000347872
0.000361117
0.000374828
0.00038902
0.000403709
0.00041891
0.00043464
0.000450915
0.000467752
0.000485169
0.000503184
0.000521815
0.000541081
0.000561002
0.000581597
0.000602888
0.000624895
0.00064764
0.000671146
0.000695434
0.000720529
0.000746454
0.000773233
0.000800893
0.000829459
0.000858957
0.000889414
0.000920859
0.000953319
0.000986824
0.0010214
0.00105709
0.00109391
0.0011319
0.00117109
0.00121152
0.00125321
0.00129621
0.00134055
0.00138627
0.00143341
0.00148199
0.00153207
0.00158368
0.00163687
0.00169167
0.00174813
0.0018063
0.00186621
0.00192792
0.00199146
0.0020569
0.00212427
0.00219362
0.00226501
0.0023385
0.00241412
0.00249194
0.00257201
0.00265438
0.00273912
0.00282628
0.00291592
0.0030081
0.00310289
0.00320034
0.00330052
0.00340349
0.00350933
0.00361809
0.00372985
0.00384468
0.00396264
0.00408382
0.00420827
0.00433609
0.00446734
0.00460211
0.00474046
0.00488249
0.00502826
0.00517787
0.0053314
0.00548893
0.00565055
0.00581635
0.00598641
0.00616083
0.0063397
0.00652311
0.00671115
0.00690392
0.00710152
0.00730405
0.0075116
0.00772427
0.00794218
0.00816541
0.00839408
0.0086283
0.00886816
0.00911378
0.00936527
0.00962273
0.00988629
0.0101561
0.0104321
0.0107147
0.0110037
0.0112995
0.011602
0.0119115
0.0122279
0.0125516
0.0128825
0.0132208
0.0135667
0.0139202
0.0142815
0.0146507
0.015028
0.0154135
0.0158072
0.0162094
0.0166202
0.0170397
0.0174681
0.0179055
0.0183519
0.0188076
0.0192728
0.0197474
0.0202318
0.020726
0.0212301
0.0217443
0.0222688
0.0228036
0.023349
0.023905
0.0244719
0.0250497
0.0256386
0.0262387
0.0268502
0.0274733
0.028108
0.0287545
0.029413
0.0300836
0.0307664
0.0314616
0.0321692
0.0328896
0.0336227
0.0343688
0.035128
0.0359004
0.0366861
0.0374853
0.0382981
0.0391246
0.0399651
0.0408195
0.0416881
0.0425709
0.0434682
0.0443799
0.0453063
0.0462475
0.0472035
0.0481746
0.0491607
0.0501621
0.0511788
0.052211
0.0532587
0.054322
0.0554011
0.0564961
0.057607
0.0587339
0.059877
0.0610363
0.0622119
0.0634039
0.0646123
0.0658373
0.0670788
0.0683371
0.069612
0.0709038
0.0722123
0.0735378
0.0748803
0.0762397
0.0776161
0.0790096
0.0804202
0.0818479
0.0832927
0.0847547
0.0862338
0.0877302
0.0892436
0.0907743
0.0923221
0.093887
0.0954691
0.0970683
0.0986845
0.100318
0.101968
0.103635
0.105319
0.10702
0.108738
0.110473
0.112224
0.113991
0.115775
0.117576
0.119392
0.121225
0.123074
0.124939
0.126819
0.128716
0.130627
0.132554
0.134497
0.136454
0.138426
0.140413
0.142415
0.144431
0.146461
0.148505
0.150563
0.152634
0.154718
0.156816
0.158927
0.16105
0.163185
0.165333
0.167492
0.169663
0.171845
0.174039
0.176243
0.178457
0.180682
0.182916
0.18516
0.187413
0.189675
0.191945
0.194224
0.19651
0.198804
0.201104
0.203412
0.205726
0.208046
0.210371
0.212702
0.215037
0.217377
0.21972
0.222067
0.224418
0.226771
0.229126
0.231483
0.233842
0.236201
0.238561
0.240921
0.24328
0.245639
0.247996
0.250352
0.252705
0.255055
0.257402
0.259745
0.262084
0.264418
0.266747
0.26907
0.271387
0.273697
0.276
0.278295
0.280581
0.282859
0.285128
0.287386
0.289634
0.291872
0.294098
0.296312
0.298513
0.300702
0.302877
0.305038
0.307184
0.309316
0.311431
0.313531
0.315614
0.31768
0.319728
0.321759
0.32377
0.325762
0.327735
0.329687
0.331619
0.333529
0.335418
0.337285
0.339129
0.340949
0.342747
0.34452
0.346268
0.347992
0.34969
0.351362
0.353007
0.354626
0.356218
0.357782
0.359317
0.360824
0.362302
0.363751
0.36517
0.366559
0.367917
0.369245
0.370541
0.371805
0.373038
0.374238
0.375405
0.37654
0.377641
0.378708
0.379741
0.380741
0.381705
0.382635
0.38353
0.384389
0.385213
0.386001
0.386753
0.387469
0.388148
0.388791
0.389397
0.389966
0.390497
0.390992
0.391449
0.391868
0.392249
0.392593
0.392899
0.393167
0.393396
0.393588
0.393741
0.393856
0.393932
0.393971
0.393971
0.393932
0.393856
0.393741
0.393588
0.393396
0.393167
0.392899
0.392593
0.392249
0.391868
0.391449
0.390992
0.390497
0.389966
0.389397
0.388791
0.388148
0.387469
0.386753
0.386001
0.385213
0.384389
0.38353
0.382635
0.381705
0.380741
0.379741
0.378708
0.377641
0.37654
0.375405
0.374238
0.373038
0.371805
0.370541
0.369245
0.367917
0.366559
0.36517
0.363751
0.362302
0.360824
0.359317
0.357782
0.356218
0.354626
0.353007
0.351362
0.34969
0.347992
0.346268
0.34452
0.342747
0.340949
0.339129
0.337285
0.335418
0.333529
0.331619
0.329687
0.327735
0.325762
0.32377
0.321759
0.319728
0.31768
0.315614
0.313531
0.311431
0.309316
0.307184
0.305038
0.302877
0.300702
0.298513
0.296312
0.294098
0.291872
0.289634
0.287386
0.285128
0.282859
0.280581
0.278295
0.276
0.273697
0.271387
0.26907
0.266747
0.264418
0.262084
0.259745
0.257402
0.255055
0.252705
0.250352
0.247996
0.245639
0.24328
0.240921
0.238561
0.236201
0.233842
0.231483
0.229126
0.226771
0.224418
0.222067
0.21972
0.217377
0.215037
0.212702
0.210371
0.208046
0.205726
0.203412
0.201104
0.198804
0.19651
0.194224
0.191945
0.189675
0.187413
0.18516
0.182916
0.180682
0.178457
0.176243
0.174039
0.171845
0.169663
0.167492
0.165333
0.163185
0.16105
0.158927
0.156816
0.154718
0.152634
0.150563
0.148505
0.146461
0.144431
0.142415
0.140413
0.138426
0.136454
0.134497
0.132554
0.130627
0.128716
0.126819
0.124939
0.123074
0.121225
0.119392
0.117576
0.115775
0.113991
0.112224
0.110473
0.108738
0.10702
0.105319
0.103635
0.101968
0.100318
0.0986845
0.0970683
0.0954691
0.093887
0.0923221
0.0907743
0.0892436
0.0877302
0.0862338
0.0847547
0.0832927
0.0818479
0.0804202
0.0790096
0.0776161
0.0762397
0.0748803
0.0735378
0.0722123
0.0709038
0.069612
0.0683371
0.0670788
0.0658373
0.0646123
0.0634039
0.0622119
0.0610363
0.059877
0.0587339
0.057607
0.0564961
0.0554011
0.054322
0.0532587
0.052211
0.0511788
0.0501621
0.0491607
0.0481746
0.0472035
0.0462475
0.0453063
0.0443799
0.0434682
0.0425709
0.0416881
0.0408195
0.0399651
0.0391246
0.0382981
0.0374853
0.0366861
0.0359004
0.035128
0.0343688
0.0336227
0.0328896
0.0321692
0.0314616
0.0307664
0.0300836
0.029413
0.0287545
0.028108
0.0274733
0.0268502
0.0262387
0.0256386
0.0250497
0.0244719
0.023905
0.023349
0.0228036
0.0222688
0.0217443
0.0212301
0.020726
0.0202318
0.0197474
0.0192728
0.0188076
0.0183519
0.0179055
0.0174681
0.0170397
0.0166202
0.0162094
0.0158072
0.0154135
0.015028
0.0146507
0.0142815
0.0139202
0.0135667
0.0132208
0.0128825
0.0125516
0.0122279
0.0119115
0.011602
0.0112995
0.0110037
0.0107147
0.0104321
0.0101561
0.00988629
0.00962273
0.00936527
0.00911378
0.00886816
0.0086283
0.00839408
0.00816541
0.00794218
0.00772427
0.0075116
0.00730405
0.00710152
0.00690392
0.00671115
0.00652311
0.0063397
0.00616083
0.00598641
0.00581635
0.00565055
0.00548893
0.0053314
0.00517787
0.00502826
0.00488249
0.00474046
0.00460211
0.00446734
0.00433609
0.00420827
0.00408382
0.00396264
0.00384468
0.00372985
0.00361809
0.00350933
0.00340349
0.00330052
0.00320034
0.00310289
0.0030081
0.00291592
0.00282628
0.00273912
0.00265438
0.00257201
0.00249194
0.00241412
0.0023385
0.00226501
0.00219362
0.00212427
0.0020569
0.00199146
0.00192792
0.00186621
0.0018063
0.00174813
0.00169167
0.00163687
0.00158368
0.00153207
0.00148199
0.00143341
0.00138627
0.00134055
0.00129621
0.00125321
0.00121152
0.00117109
0.0011319
0.00109391
0.00105709
0.0010214
0.000986824
0.000953319
0.000920859
0.000889414
0.000858957
0.000829459
0.000800893
0.000773233
0.000746454
0.000720529
0.000695434
0.000671146
0.00064764
0.000624895
0.000602888
0.000581597
0.000561002
0.000541081
0.000521815
0.000503184
0.000485169
0.000467752
0.000450915
0.00043464
0.00041891
0.000403709
0.00038902
0.000374828
0.000361117
0.000347872
0.000335079
0.000322724
0.000310794
0.000299274
0.000288152
0.000277415
0.000267051
0.000257049
0.000247396
0.000238082
0.000229095
0.000220425
0.000212062
0.000203996
0.000196216
0.000188715
0.000181481
0.000174508
0.000167785
0.000161305
0.00015506
0.000149041
0.000143242
0.000137654
0.000132272
0.000127086
0.000122092
0.000117282
0.000112651
0.000108191
0.000103898
9.9765e-05
9.57869e-05
9.19582e-05
8.82737e-05
8.47284e-05
8.13175e-05
7.80361e-05
7.48797e-05
7.18439e-05
6.89245e-05
6.61171e-05
6.3418e-05
6.08231e-05
5.83287e-05
5.59312e-05
5.36272e-05
5.14131e-05
4.92858e-05
4.72421e-05
4.52789e-05
4.33933e-05
4.15824e-05
3.98435e-05
3.8174e-05
3.65711e-05
3.50326e-05
3.35559e-05
3.21388e-05
3.07791e-05
2.94745e-05
2.82231e-05
2.70229e-05
2.58718e-05
2.47681e-05
2.37099e-05
2.26956e-05
2.17234e-05
2.07918e-05
1.98993e-05
1.90442e-05
1.82253e-05
1.74411e-05
1.66903e-05
1.59717e-05
1.5284e-05
1.46259e-05
1.39965e-05
1.33946e-05
1.28192e-05
1.22692e-05
1.17436e-05
1.12417e-05
1.07624e-05
1.03049e-05
9.86843e-06
9.45218e-06
9.05539e-06
8.67736e-06
8.31738e-06
7.97481e-06
7.64902e-06
7.33942e-06
7.04542e-06
6.76648e-06
6.50209e-06
6.25176e-06
6.01501e-06
5.79141e-06
5.58052e-06
5.38195e-06
5.19533e-06
5.0203e-06
4.85653e-06
4.70371e-06
4.56154e-06
4.42975e-06
4.30808e-06
4.19631e-06
4.09421e-06
4.00159e-06
3.91827e-06
3.84409e-06
3.77891e-06
3.72259e-06
3.67503e-06
3.63613e-06
3.60582e-06
3.58404e-06
3.57075e-06
3.56592e-06
)
;

boundaryField
{
    sides
    {
        type            zeroGradient;
    }
    empty
    {
        type            empty;
    }
}


// ************************************************************************* //
