/*--------------------------------*- C++ -*----------------------------------*\
| =========                 |                                                 |
| \\      /  F ield         | OpenFOAM: The Open Source CFD Toolbox           |
|  \\    /   O peration     | Version:  2312                                  |
|   \\  /    A nd           | Website:  www.openfoam.com                      |
|    \\/     M anipulation  |                                                 |
\*---------------------------------------------------------------------------*/
FoamFile
{
    version     2.0;
    format      ascii;
    arch        "LSB;label=32;scalar=64";
    class       volScalarField;
    location    "3.6";
    object      T;
}
// * * * * * * * * * * * * * * * * * * * * * * * * * * * * * * * * * * * * * //

dimensions      [0 0 0 1 0 0 0];

internalField   nonuniform List<scalar> 
1000
(
0
0
0
0
0
0
0
0
0
0
0
0
0
0
0
0
0
0
0
0
0
0
0
0
0
0
0
0
0
0
0
0
0
0
0
0
0
0
0
0
0
0
0
0
0
0
0
0
0
0
0
0
0
0
0
0
0
0
0
0
0
0
0
0
0
0
0
0
0
0
0
0
0
0
0
0
0
0
0
0
0
0
0
0
0
0
0
0
0
0
0
0
0
0
0
0
0
0
0
0
0
0
0
0
0
0
0
0
0
0
0
0
0
0
0
0
0
0
0
0
0
0
0
0
0
0
0
0
0
0
0
0
0
0
0
0
0
0
0
0
0
0
0
0
0
0
0
0
0
0
0
0
0
0
0
0
0
0
0
0
0
0
0
0
0
0
0
0
0
0
0
0
0
0
0
0
0
0
0
0
0
0
0
0
0
0
0
0
0
0
0
0
0
0
0
0
0
0
0
0
0
0
0
0
0
0
0
0
0
0
0
0
0
0
0
0
0
0
0
0
0
0
0
0
0
0
0
0
0
0
0
0
0
0
0
0
0
0
0
0
0
0
0
0
0
0
0
0
0
0
0
0
0
0
0
0
0
0
0
0
0
0
0
0
0
0
0
0
0
0
0
0
0
0
0
0
0
0
0
0
0
0
0
0
0
0
0
0
0
0
0
0
0
0
0
0
0
0
0
0
0
0
0
0
0
0
0
0
0
0
0
0
0
0
0
0
0
0
0
0
0
0
0
0
0
0
0
0
0
0
0
0
0
0
0
0
0
0
0
0
0
0
0
0
0
0
0
0
0
0
0
0
0
0
0
0
0
0
0
0
0
0
0
0
0
0
0
0
0
0
0
0
0
0
0
0
0
0
0
0
0
0
0
0
0
0
0
0
0
0
0
0
0
0
0
0
0
0
0
0
0
0
0
0
0
0
0
0
0
0
0
0
0
0
0
0
0
0
0
0
0
0
0
0
0
0
0
0
0
0
0
0
0
0
0
0
0
0
0
0
0
0
0
0
0
0
0
0
0
0
1.58614e-103
3.64957e-101
4.1999e-99
3.22309e-97
1.85565e-95
8.54942e-94
3.2834e-92
1.08117e-90
3.11599e-89
7.98503e-88
1.84216e-86
3.86467e-85
7.43426e-84
1.32047e-82
2.17853e-81
3.35555e-80
4.84688e-79
6.59114e-78
8.46766e-77
1.03089e-75
1.19266e-74
1.31449e-73
1.38332e-72
1.39288e-71
1.34446e-70
1.24618e-69
1.11099e-68
9.54069e-68
7.90282e-67
6.32227e-66
4.89069e-65
3.66231e-64
2.65754e-63
1.87056e-62
1.27828e-61
8.48829e-61
5.48162e-60
3.44531e-59
2.10909e-58
1.25837e-57
7.32247e-57
4.15826e-56
2.30584e-55
1.24928e-54
6.61656e-54
3.42749e-53
1.73742e-52
8.62228e-52
4.19108e-51
1.99621e-50
9.32055e-50
4.26783e-49
1.91721e-48
8.45258e-48
3.65866e-47
1.55531e-46
6.49554e-46
2.66599e-45
1.07567e-44
4.26782e-44
1.66558e-43
6.39553e-43
2.41689e-42
8.99125e-42
3.29363e-41
1.1883e-40
4.22358e-40
1.47923e-39
5.10607e-39
1.73752e-38
5.82984e-38
1.9291e-37
6.29667e-37
2.02772e-36
6.44363e-36
2.02095e-35
6.25691e-35
1.91258e-34
5.77311e-34
1.72107e-33
5.06827e-33
1.47455e-32
4.23899e-32
1.2043e-31
3.38174e-31
9.38728e-31
2.57628e-30
6.99136e-30
1.87629e-29
4.98042e-29
1.30772e-28
3.39702e-28
8.73115e-28
2.22067e-27
5.5897e-27
1.39262e-26
3.4345e-26
8.38555e-26
2.02713e-25
4.85242e-25
1.15029e-24
2.70067e-24
6.2805e-24
1.44683e-23
3.30204e-23
7.4667e-23
1.673e-22
3.71471e-22
8.17434e-22
1.78286e-21
3.85436e-21
8.26035e-21
1.75505e-20
3.69708e-20
7.72222e-20
1.59946e-19
3.28538e-19
6.69285e-19
1.35233e-18
2.71038e-18
5.38872e-18
1.06287e-17
2.0799e-17
4.03835e-17
7.78021e-17
1.48742e-16
2.82203e-16
5.31375e-16
9.93067e-16
1.84214e-15
3.39202e-15
6.20031e-15
1.12516e-14
2.02713e-14
3.62614e-14
6.44063e-14
1.13594e-13
1.98952e-13
3.46047e-13
5.97772e-13
1.02559e-12
1.74772e-12
2.95838e-12
4.9744e-12
8.30911e-12
1.37885e-11
2.27325e-11
3.72366e-11
6.06045e-11
9.80101e-11
1.57503e-10
2.51524e-10
3.99175e-10
6.2959e-10
9.86925e-10
1.53766e-09
2.38125e-09
3.66555e-09
5.60891e-09
8.53185e-09
1.29018e-08
1.93963e-08
2.89911e-08
4.30832e-08
6.36596e-08
9.353e-08
1.36643e-07
1.98511e-07
2.86792e-07
4.12047e-07
5.88763e-07
8.36692e-07
1.1826e-06
1.66254e-06
2.32481e-06
3.23369e-06
4.47423e-06
6.15837e-06
8.43247e-06
1.14869e-05
1.55675e-05
2.09907e-05
2.81603e-05
3.75893e-05
4.99258e-05
6.59833e-05
8.67772e-05
0.000113568
0.000147909
0.00019171
0.000247294
0.000317482
0.000405673
0.000515938
0.000653128
0.000822989
0.00103228
0.00128892
0.0016021
0.00198247
0.00244225
0.00299541
0.00365777
0.00444721
0.00538373
0.00648962
0.0077895
0.00931043
0.0110819
0.0131358
0.0155066
0.0182308
0.0213471
0.0248962
0.0289204
0.0334632
0.0385691
0.044283
0.0506494
0.0577125
0.0655149
0.0740972
0.0834973
0.0937497
0.104885
0.116927
0.129898
0.14381
0.158669
0.174476
0.191222
0.208891
0.227458
0.246889
0.267145
0.288174
0.30992
0.332319
0.355299
0.378782
0.402686
0.426923
0.451404
0.476034
0.500721
0.525369
0.549885
0.574178
0.598158
0.62174
0.644845
0.667397
0.689329
0.710578
0.73109
0.750818
0.769723
0.787774
0.804946
0.821224
0.836598
0.851068
0.864637
0.877317
0.889124
0.900079
0.910209
0.919543
0.928114
0.935956
0.943107
0.949606
0.955491
0.960803
0.965581
0.969864
0.97369
0.977096
0.980118
0.98279
0.985145
0.987211
0.989019
0.990594
0.99196
0.993139
0.994152
0.995016
0.995746
0.996357
0.99686
0.997265
0.99758
0.99781
0.99796
0.998031
0.998024
0.997936
0.997763
0.997499
0.997136
0.996662
0.996065
0.995329
0.994436
0.993365
0.992094
0.990597
0.988844
0.986806
0.984447
0.981733
0.978624
0.975081
0.971062
0.966523
0.96142
0.955709
0.949344
0.942282
0.934481
0.9259
0.9165
0.906249
0.895114
0.883072
0.870101
0.85619
0.84133
0.825523
0.808777
0.791109
0.772542
0.753111
0.732855
0.711826
0.690079
0.667681
0.644701
0.621218
0.597314
0.573077
0.548596
0.523966
0.499279
0.474631
0.450115
0.425822
0.401842
0.37826
0.355155
0.332603
0.310671
0.289422
0.26891
0.249182
0.230277
0.212226
0.195054
0.178776
0.163402
0.148932
0.135363
0.122683
0.110876
0.0999206
0.0897905
0.0804565
0.0718859
0.0640434
0.056892
0.0503931
0.0445073
0.0391951
0.0344167
0.0301331
0.0263059
0.022898
0.0198735
0.0171983
0.0148399
0.0127676
0.0109527
0.00936846
0.00799004
0.00679462
0.00576126
0.00487087
0.00410615
0.00345145
0.00289274
0.00241747
0.00201445
0.00167377
0.0013867
0.00114557
0.000943645
0.000775087
0.000634815
0.000518443
0.000422197
0.00034284
0.000277607
0.00022415
0.000180474
0.000144898
0.000116007
9.26149e-05
7.37324e-05
5.85353e-05
4.63406e-05
3.65841e-05
2.88014e-05
2.26114e-05
1.77026e-05
1.38212e-05
1.07611e-05
8.35541e-06
6.46976e-06
4.99595e-06
3.84734e-06
2.95473e-06
2.26305e-06
1.72859e-06
1.31679e-06
1.00038e-06
7.57958e-07
5.72742e-07
4.31627e-07
3.24412e-07
2.4318e-07
1.81805e-07
1.35559e-07
1.0081e-07
7.47713e-08
5.53124e-08
4.08103e-08
3.00317e-08
2.20423e-08
1.61362e-08
1.1782e-08
8.58052e-09
6.23282e-09
4.51583e-09
3.26343e-09
2.35232e-09
1.69126e-09
1.21288e-09
8.67601e-10
6.19044e-10
4.4058e-10
3.12776e-10
2.21487e-10
1.5645e-10
1.10234e-10
7.7477e-11
5.43186e-11
3.79881e-11
2.65015e-11
1.84426e-11
1.28028e-11
8.86588e-12
6.12457e-12
4.22054e-12
2.90137e-12
1.98968e-12
1.36117e-12
9.28949e-13
6.32448e-13
4.29551e-13
2.91047e-13
1.96732e-13
1.32663e-13
8.9247e-14
5.98973e-14
4.01046e-14
2.6789e-14
1.78525e-14
1.18692e-14
7.87275e-15
5.20978e-15
3.43955e-15
2.26556e-15
1.48883e-15
9.76138e-16
6.38525e-16
4.16722e-16
2.71344e-16
1.7628e-16
1.1426e-16
7.38925e-17
4.76783e-17
3.06945e-17
1.97161e-17
1.26358e-17
8.08002e-18
5.15525e-18
3.28185e-18
2.08459e-18
1.32117e-18
8.35475e-19
5.2717e-19
3.31903e-19
2.08505e-19
1.30699e-19
8.1748e-20
5.10194e-20
3.17723e-20
1.97434e-20
1.2242e-20
7.57441e-21
4.67637e-21
2.88096e-21
1.77107e-21
1.08644e-21
6.65044e-22
4.0623e-22
2.47613e-22
1.50611e-22
9.14161e-23
5.53701e-23
3.3467e-23
2.01859e-23
1.21499e-23
7.29785e-24
4.37435e-24
2.61656e-24
1.56189e-24
9.30413e-25
5.53104e-25
3.2813e-25
1.94266e-25
1.14778e-25
6.76767e-26
3.98232e-26
2.33858e-26
1.37053e-26
8.01588e-27
4.67885e-27
2.72555e-27
1.58453e-27
9.19347e-28
5.32344e-28
3.0764e-28
1.77431e-28
1.02132e-28
5.86721e-29
3.36394e-29
1.92492e-29
1.09932e-29
)
;

boundaryField
{
    sides
    {
        type            zeroGradient;
    }
    empty
    {
        type            empty;
    }
}


// ************************************************************************* //
