/*--------------------------------*- C++ -*----------------------------------*\
| =========                 |                                                 |
| \\      /  F ield         | OpenFOAM: The Open Source CFD Toolbox           |
|  \\    /   O peration     | Version:  2312                                  |
|   \\  /    A nd           | Website:  www.openfoam.com                      |
|    \\/     M anipulation  |                                                 |
\*---------------------------------------------------------------------------*/
FoamFile
{
    version     2.0;
    format      ascii;
    arch        "LSB;label=32;scalar=64";
    class       volScalarField;
    location    "4.4";
    object      T;
}
// * * * * * * * * * * * * * * * * * * * * * * * * * * * * * * * * * * * * * //

dimensions      [0 0 0 1 0 0 0];

internalField   nonuniform List<scalar> 
1000
(
0
0
0
0
0
0
0
0
0
0
0
0
0
0
0
0
0
0
0
0
0
0
0
0
0
0
0
0
0
0
0
0
0
0
0
0
0
0
0
0
0
0
0
0
0
0
0
0
0
0
0
0
0
0
0
0
0
0
0
0
0
0
0
0
0
0
0
0
0
0
0
0
0
0
0
0
0
0
0
0
0
0
0
0
0
0
0
0
0
0
0
0
0
0
0
0
0
0
0
0
0
0
0
0
0
0
0
0
0
0
0
0
0
0
0
0
0
0
0
0
0
0
0
0
0
0
0
0
0
0
0
0
0
0
0
0
0
0
0
0
0
0
0
0
0
0
0
0
0
0
0
0
0
0
0
0
0
0
0
0
0
0
0
0
0
0
0
0
0
0
0
0
0
0
0
0
0
0
0
0
0
0
0
0
0
0
0
0
0
0
0
0
0
0
0
0
0
0
0
0
0
0
0
0
0
0
0
0
0
0
0
0
0
0
0
0
0
0
0
0
0
0
0
0
0
0
1.43279e-322
1.29198e-320
8.96754e-319
6.16905e-317
4.22523e-315
2.88142e-313
1.9565e-311
1.32269e-309
8.90304e-308
5.96632e-306
3.98065e-304
2.64407e-302
1.74844e-300
1.15102e-298
7.5432e-297
4.92109e-295
3.19587e-293
2.06599e-291
1.32945e-289
8.51543e-288
5.42905e-286
3.44519e-284
2.17602e-282
1.36793e-280
8.55869e-279
5.32941e-277
3.3027e-275
2.03689e-273
1.25015e-271
7.63563e-270
4.64089e-268
2.80685e-266
1.68924e-264
1.01158e-262
6.02754e-261
3.57351e-259
2.10793e-257
1.23711e-255
7.22337e-254
4.19604e-252
2.42491e-250
1.3941e-248
7.97297e-247
4.53591e-245
2.56692e-243
1.44495e-241
8.09036e-240
4.50555e-238
2.49562e-236
1.37481e-234
7.53239e-233
4.10421e-231
2.22392e-229
1.19837e-227
6.42133e-226
3.42145e-224
1.81272e-222
9.54927e-221
5.00167e-219
2.60465e-217
1.34851e-215
6.94097e-214
3.55162e-212
1.80658e-210
9.13476e-209
4.59123e-207
2.2937e-205
1.13894e-203
5.62091e-202
2.75699e-200
1.34391e-198
6.51014e-197
3.13387e-195
1.49907e-193
7.12516e-192
3.36497e-190
1.57892e-188
7.36062e-187
3.40897e-185
1.56843e-183
7.16841e-182
3.25442e-180
1.46756e-178
6.57313e-177
2.924e-175
1.29179e-173
5.66751e-172
2.4692e-170
1.06823e-168
4.58867e-167
1.95707e-165
8.28699e-164
3.48365e-162
1.45377e-160
6.02218e-159
2.4762e-157
1.01056e-155
4.09321e-154
1.64535e-152
6.56329e-151
2.59792e-149
1.02033e-147
3.97598e-146
1.53711e-144
5.89509e-143
2.24272e-141
8.46307e-140
3.16752e-138
1.17575e-136
4.32801e-135
1.57981e-133
5.71781e-132
2.05179e-130
7.29928e-129
2.57416e-127
8.9984e-126
3.11769e-124
1.07054e-122
3.64283e-121
1.22829e-119
4.10349e-118
1.35817e-116
4.45314e-115
1.44626e-113
4.65218e-112
1.48201e-110
4.67508e-109
1.46025e-107
4.51561e-106
1.38234e-104
4.18865e-103
1.25617e-101
3.72809e-100
1.09481e-98
3.18096e-97
9.143e-96
2.59943e-94
7.30926e-93
2.03244e-91
5.58798e-90
1.51889e-88
4.08106e-87
1.08376e-85
2.84411e-84
7.37474e-83
1.88916e-81
4.78023e-80
1.19458e-78
2.94778e-77
7.1816e-76
1.7271e-74
4.09926e-73
9.60085e-72
2.21845e-70
5.05639e-69
1.13658e-67
2.51906e-66
5.50388e-65
1.18521e-63
2.51494e-62
5.25731e-61
1.08244e-59
2.19453e-58
4.38e-57
8.60373e-56
1.6629e-54
3.16153e-53
5.91089e-52
1.08645e-50
1.96262e-49
3.48336e-48
6.07231e-47
1.03934e-45
1.74608e-44
2.87813e-43
4.65304e-42
7.37522e-41
1.14564e-39
1.74332e-38
2.59757e-37
3.78812e-36
5.40429e-35
7.53868e-34
1.0277e-32
1.36843e-31
1.77872e-30
2.25563e-29
2.78887e-28
3.35974e-27
3.94091e-26
4.49765e-25
4.99044e-24
5.37901e-23
5.62735e-22
5.70883e-21
5.61066e-20
5.33652e-19
4.90689e-18
4.35664e-17
3.7304e-16
3.07637e-15
2.43996e-14
1.85831e-13
1.35684e-12
9.48068e-12
6.32716e-11
4.02461e-10
2.43441e-09
1.3968e-08
7.58159e-08
3.88124e-07
1.86781e-06
8.41917e-06
3.54029e-05
0.000138266
0.000499082
0.00165605
0.00502189
0.0138297
0.0343592
0.0765104
0.151817
0.267374
0.417782
0.582218
0.732626
0.848183
0.92349
0.965641
0.98617
0.994978
0.998344
0.999501
0.999862
0.999965
0.999992
0.999998
1
1
1
1
1
1
1
1
1
1
1
1
1
1
1
1
1
1
1
1
1
1
1
1
1
1
1
1
1
1
1
1
1
1
1
1
1
1
1
1
1
1
1
1
1
1
1
1
1
1
1
1
1
1
1
1
1
1
1
1
1
1
1
1
1
1
1
1
1
1
1
1
1
1
0.999998
0.999992
0.999965
0.999862
0.999501
0.998344
0.994978
0.98617
0.965641
0.92349
0.848183
0.732626
0.582218
0.417782
0.267374
0.151817
0.0765104
0.0343592
0.0138297
0.00502189
0.00165605
0.000499082
0.000138266
3.54029e-05
8.41917e-06
1.86781e-06
3.88124e-07
7.58159e-08
1.3968e-08
2.43441e-09
4.02461e-10
6.32716e-11
9.48068e-12
1.35684e-12
1.85831e-13
2.43996e-14
3.07637e-15
3.7304e-16
4.35664e-17
4.90689e-18
5.33652e-19
5.61066e-20
5.70883e-21
5.62735e-22
5.37901e-23
4.99044e-24
4.49765e-25
3.94091e-26
3.35974e-27
2.78887e-28
2.25563e-29
1.77872e-30
1.36843e-31
1.0277e-32
7.53868e-34
5.40429e-35
3.78812e-36
2.59757e-37
1.74332e-38
1.14564e-39
7.37522e-41
4.65304e-42
2.87813e-43
1.74608e-44
1.03934e-45
6.07231e-47
3.48336e-48
1.96262e-49
1.08645e-50
5.91089e-52
3.16153e-53
1.6629e-54
8.60373e-56
4.38e-57
2.19453e-58
1.08244e-59
5.25731e-61
2.51494e-62
1.18521e-63
5.50388e-65
2.51906e-66
1.13658e-67
5.05639e-69
2.21845e-70
9.60085e-72
4.09926e-73
1.7271e-74
7.1816e-76
2.94778e-77
1.19458e-78
4.78023e-80
1.88916e-81
7.37474e-83
2.84411e-84
1.08376e-85
4.08106e-87
1.51889e-88
5.58798e-90
2.03244e-91
7.30926e-93
2.59943e-94
9.143e-96
3.18096e-97
1.09481e-98
3.72809e-100
1.25617e-101
4.18865e-103
1.38234e-104
4.51561e-106
1.46025e-107
4.67508e-109
1.48201e-110
4.65218e-112
1.44626e-113
4.45314e-115
1.35817e-116
4.10349e-118
1.22829e-119
3.64283e-121
1.07054e-122
3.11769e-124
8.9984e-126
2.57416e-127
7.29928e-129
2.05179e-130
5.71781e-132
1.57981e-133
4.32801e-135
1.17575e-136
3.16752e-138
8.46307e-140
2.24272e-141
5.89509e-143
1.53711e-144
3.97598e-146
1.02033e-147
2.59792e-149
6.56329e-151
1.64535e-152
4.09321e-154
1.01056e-155
2.4762e-157
6.02218e-159
1.45377e-160
3.48365e-162
8.28699e-164
1.95707e-165
4.58867e-167
1.06823e-168
2.4692e-170
5.66751e-172
1.29179e-173
2.924e-175
6.57313e-177
1.46756e-178
3.25442e-180
7.16841e-182
1.56843e-183
3.40897e-185
7.36062e-187
1.57892e-188
3.36497e-190
7.12516e-192
1.49907e-193
3.13387e-195
6.51014e-197
1.34391e-198
2.75699e-200
5.62091e-202
1.13894e-203
2.2937e-205
4.59123e-207
9.13476e-209
1.80658e-210
3.55162e-212
6.94097e-214
1.34851e-215
2.60465e-217
5.00167e-219
9.54927e-221
1.81272e-222
3.42145e-224
6.42133e-226
1.19837e-227
2.22392e-229
4.10421e-231
7.53239e-233
1.37481e-234
2.49562e-236
4.50555e-238
8.09036e-240
1.44495e-241
2.56692e-243
4.53591e-245
7.97297e-247
1.3941e-248
2.42491e-250
4.19604e-252
7.22337e-254
1.23711e-255
2.10793e-257
3.57351e-259
6.02754e-261
1.01158e-262
1.68924e-264
2.80685e-266
4.64089e-268
7.63563e-270
1.25015e-271
2.03689e-273
3.3027e-275
5.32941e-277
8.55869e-279
1.36793e-280
2.17602e-282
3.44519e-284
5.42905e-286
8.51543e-288
1.32945e-289
2.06599e-291
3.19587e-293
4.92109e-295
7.5432e-297
1.15102e-298
1.74844e-300
2.64407e-302
3.98065e-304
5.96632e-306
8.90304e-308
1.32269e-309
1.9565e-311
2.88142e-313
4.22523e-315
6.16906e-317
8.96754e-319
1.29198e-320
1.43279e-322
0
0
0
0
0
0
0
0
0
0
0
0
0
0
0
0
0
0
0
0
0
0
0
0
0
0
0
0
0
0
0
0
0
0
0
0
0
0
0
0
0
0
0
0
0
0
0
0
0
0
0
0
0
0
0
0
0
0
0
0
0
0
0
0
0
0
0
0
0
0
0
0
0
0
0
0
0
0
0
0
0
0
0
0
0
0
0
0
0
0
0
0
0
0
0
0
0
0
0
0
0
0
0
0
0
0
0
0
0
0
0
0
0
0
0
0
0
0
0
0
0
0
0
0
0
0
0
0
0
0
0
0
0
0
0
0
0
0
0
0
0
0
0
0
0
0
0
0
0
0
0
0
0
0
0
0
0
0
0
0
0
0
0
0
0
0
0
0
0
0
0
0
0
0
0
0
0
0
0
0
0
0
0
0
0
0
0
0
0
0
0
0
0
0
0
0
0
0
0
0
0
0
0
0
0
0
0
0
0
0
0
0
0
0
0
0
0
0
0
0
0
0
0
0
0
0
)
;

boundaryField
{
    sides
    {
        type            zeroGradient;
    }
    empty
    {
        type            empty;
    }
}


// ************************************************************************* //
