/*--------------------------------*- C++ -*----------------------------------*\
| =========                 |                                                 |
| \\      /  F ield         | OpenFOAM: The Open Source CFD Toolbox           |
|  \\    /   O peration     | Version:  2312                                  |
|   \\  /    A nd           | Website:  www.openfoam.com                      |
|    \\/     M anipulation  |                                                 |
\*---------------------------------------------------------------------------*/
FoamFile
{
    version     2.0;
    format      ascii;
    arch        "LSB;label=32;scalar=64";
    class       volScalarField;
    location    "1.7";
    object      T;
}
// * * * * * * * * * * * * * * * * * * * * * * * * * * * * * * * * * * * * * //

dimensions      [0 0 0 1 0 0 0];

internalField   nonuniform List<scalar> 
1000
(
0
0
0
0
0
0
0
0
0
0
0
0
0
0
0
0
0
0
0
0
0
0
0
0
0
0
0
0
0
0
0
0
0
0
0
0
0
0
0
0
0
0
0
0
0
0
0
0
0
0
0
0
0
0
0
0
0
0
0
0
0
0
0
0
0
0
0
0
0
0
0
0
0
0
0
0
0
0
0
0
0
0
0
0
0
0
0
0
0
0
0
0
0
0
0
0
0
0
0
0
0
0
0
0
0
0
0
0
0
0
0
0
0
0
0
0
0
0
0
0
0
0
0
0
0
0
0
0
0
0
0
0
0
0
0
0
0
0
0
0
0
0
0
0
0
0
0
0
0
0
0
0
0
0
0
0
0
0
0
0
0
0
0
0
0
0
0
0
0
0
0
0
0
0
0
0
0
0
0
0
0
0
0
0
0
0
0
0
0
0
0
0
0
0
0
0
0
0
0
0
0
0
0
0
0
0
0
0
0
0
0
0
0
0
0
0
0
0
0
0
0
0
0
0
0
0
0
0
0
0
0
0
0
0
0
0
0
0
0
0
0
0
0
0
0
0
0
0
0
0
0
0
0
0
0
0
0
0
0
0
0
0
0
0
0
0
3.0138e-322
4.65015e-320
6.47772e-318
8.97249e-316
1.23662e-313
1.69585e-311
2.31393e-309
3.1413e-307
4.24283e-305
5.70129e-303
7.62163e-301
1.0136e-298
1.34095e-296
1.76472e-294
2.31014e-292
3.00805e-290
3.89587e-288
5.01856e-286
6.42974e-284
8.19281e-282
1.0382e-279
1.30835e-277
1.63962e-275
2.04326e-273
2.53192e-271
3.11964e-269
3.82182e-267
4.65511e-265
5.63724e-263
6.78676e-261
8.12271e-259
9.66414e-257
1.14296e-254
1.34365e-252
1.57004e-250
1.82341e-248
2.10469e-246
2.41437e-244
2.7524e-242
3.1181e-240
3.5101e-238
3.92628e-236
4.36367e-234
4.8185e-232
5.28614e-230
5.76119e-228
6.23748e-226
6.70822e-224
7.16613e-222
7.60357e-220
8.01278e-218
8.38605e-216
8.71599e-214
8.99573e-212
9.21916e-210
9.38117e-208
9.4778e-206
9.50642e-204
9.46584e-202
9.35636e-200
9.17981e-198
8.93946e-196
8.63996e-194
8.28718e-192
7.888e-190
7.45011e-188
6.98176e-186
6.49145e-184
5.98775e-182
5.47896e-180
4.97293e-178
4.47688e-176
3.99718e-174
3.53926e-172
3.10754e-170
2.70541e-168
2.33521e-166
1.99828e-164
1.69508e-162
1.42524e-160
1.18772e-158
9.80897e-157
8.02751e-155
6.50946e-153
5.22966e-151
4.16221e-149
3.28136e-147
2.56223e-145
1.9814e-143
1.51729e-141
1.15044e-139
8.63592e-138
6.41731e-136
4.72006e-134
3.4359e-132
2.47503e-130
1.76406e-128
1.2439e-126
8.67645e-125
5.98582e-123
4.08387e-121
2.75504e-119
1.83752e-117
1.21148e-115
7.89446e-114
5.08371e-112
3.23464e-110
2.03323e-108
1.26239e-106
7.74054e-105
4.68649e-103
2.8012e-101
1.65266e-99
9.62239e-98
5.52789e-96
3.13276e-94
1.75105e-92
9.65124e-91
5.24428e-89
2.80874e-87
1.48238e-85
7.70781e-84
3.94745e-82
1.99072e-80
9.88319e-79
4.82906e-77
2.3216e-75
1.09785e-73
5.10515e-72
2.3337e-70
1.04838e-68
4.62681e-67
2.00535e-65
8.53276e-64
3.56304e-62
1.45954e-60
5.8628e-59
2.30838e-57
8.90503e-56
3.36429e-54
1.24417e-52
4.50174e-51
1.59284e-49
5.50837e-48
1.86076e-46
6.13641e-45
1.97438e-43
6.19374e-42
1.89315e-40
5.63398e-39
1.63121e-37
4.59113e-36
1.25508e-34
3.32948e-33
8.56277e-32
2.13275e-30
5.13898e-29
1.19652e-27
2.6886e-26
5.82252e-25
1.21351e-23
2.43024e-22
4.66862e-21
8.58746e-20
1.50941e-18
2.52966e-17
4.03256e-16
6.09829e-15
8.7229e-14
1.17627e-12
1.48985e-11
1.76503e-10
1.94658e-09
1.98761e-08
1.86719e-07
1.60189e-06
1.24411e-05
8.6558e-05
0.000532626
0.00285319
0.0130435
0.0496143
0.15204
0.360911
0.639089
0.84796
0.950386
0.986957
0.997147
0.999467
0.999913
0.999988
0.999998
1
1
1
1
1
1
1
1
1
1
1
1
1
1
1
1
1
1
1
1
1
1
1
1
1
1
1
1
1
1
1
1
1
1
1
1
1
1
1
1
1
1
1
1
1
1
1
1
1
1
1
1
1
1
1
1
1
1
1
1
1
1
1
1
1
1
1
1
1
1
1
1
1
1
1
1
1
1
1
1
1
1
0.999998
0.999988
0.999913
0.999467
0.997147
0.986957
0.950386
0.84796
0.639089
0.360911
0.15204
0.0496143
0.0130435
0.00285319
0.000532626
8.6558e-05
1.24411e-05
1.60189e-06
1.86719e-07
1.98761e-08
1.94658e-09
1.76503e-10
1.48985e-11
1.17627e-12
8.7229e-14
6.09829e-15
4.03256e-16
2.52966e-17
1.50941e-18
8.58746e-20
4.66862e-21
2.43024e-22
1.21351e-23
5.82252e-25
2.6886e-26
1.19652e-27
5.13898e-29
2.13275e-30
8.56277e-32
3.32948e-33
1.25508e-34
4.59113e-36
1.63121e-37
5.63398e-39
1.89315e-40
6.19374e-42
1.97438e-43
6.13641e-45
1.86076e-46
5.50837e-48
1.59284e-49
4.50174e-51
1.24417e-52
3.36429e-54
8.90503e-56
2.30838e-57
5.8628e-59
1.45954e-60
3.56304e-62
8.53276e-64
2.00535e-65
4.62681e-67
1.04838e-68
2.3337e-70
5.10515e-72
1.09785e-73
2.3216e-75
4.82906e-77
9.88319e-79
1.99072e-80
3.94745e-82
7.70781e-84
1.48238e-85
2.80874e-87
5.24428e-89
9.65124e-91
1.75105e-92
3.13276e-94
5.52789e-96
9.62239e-98
1.65266e-99
2.8012e-101
4.68649e-103
7.74054e-105
1.26239e-106
2.03323e-108
3.23464e-110
5.08371e-112
7.89446e-114
1.21148e-115
1.83752e-117
2.75504e-119
4.08387e-121
5.98582e-123
8.67645e-125
1.2439e-126
1.76406e-128
2.47503e-130
3.4359e-132
4.72006e-134
6.41731e-136
8.63592e-138
1.15044e-139
1.51729e-141
1.9814e-143
2.56223e-145
3.28136e-147
4.16221e-149
5.22966e-151
6.50946e-153
8.02751e-155
9.80897e-157
1.18772e-158
1.42524e-160
1.69508e-162
1.99828e-164
2.33521e-166
2.70541e-168
3.10754e-170
3.53926e-172
3.99718e-174
4.47688e-176
4.97293e-178
5.47896e-180
5.98775e-182
6.49145e-184
6.98176e-186
7.45011e-188
7.888e-190
8.28718e-192
8.63996e-194
8.93946e-196
9.17981e-198
9.35636e-200
9.46584e-202
9.50642e-204
9.4778e-206
9.38117e-208
9.21916e-210
8.99573e-212
8.71599e-214
8.38605e-216
8.01278e-218
7.60357e-220
7.16613e-222
6.70822e-224
6.23748e-226
5.76119e-228
5.28614e-230
4.8185e-232
4.36367e-234
3.92628e-236
3.5101e-238
3.1181e-240
2.7524e-242
2.41437e-244
2.10469e-246
1.82341e-248
1.57004e-250
1.34365e-252
1.14296e-254
9.66414e-257
8.12271e-259
6.78676e-261
5.63724e-263
4.65511e-265
3.82182e-267
3.11964e-269
2.53192e-271
2.04326e-273
1.63962e-275
1.30835e-277
1.0382e-279
8.19281e-282
6.42974e-284
5.01856e-286
3.89587e-288
3.00805e-290
2.31014e-292
1.76472e-294
1.34095e-296
1.0136e-298
7.62163e-301
5.70129e-303
4.24283e-305
3.1413e-307
2.31393e-309
1.69585e-311
1.23662e-313
8.97249e-316
6.47772e-318
4.65015e-320
3.0138e-322
0
0
0
0
0
0
0
0
0
0
0
0
0
0
0
0
0
0
0
0
0
0
0
0
0
0
0
0
0
0
0
0
0
0
0
0
0
0
0
0
0
0
0
0
0
0
0
0
0
0
0
0
0
0
0
0
0
0
0
0
0
0
0
0
0
0
0
0
0
0
0
0
0
0
0
0
0
0
0
0
0
0
0
0
0
0
0
0
0
0
0
0
0
0
0
0
0
0
0
0
0
0
0
0
0
0
0
0
0
0
0
0
0
0
0
0
0
0
0
0
0
0
0
0
0
0
0
0
0
0
0
0
0
0
0
0
0
0
0
0
0
0
0
0
0
0
0
0
0
0
0
0
0
0
0
0
0
0
0
0
0
0
0
0
0
0
0
0
0
0
0
0
0
0
0
0
0
0
0
0
0
0
0
0
0
0
0
0
0
0
0
0
0
0
0
0
0
0
0
0
0
0
0
0
0
0
0
0
0
0
0
0
0
0
0
0
0
0
0
0
0
0
0
0
0
0
0
0
0
0
0
0
0
0
0
0
0
0
0
0
0
0
0
0
0
0
0
0
0
0
0
0
0
0
0
0
0
0
0
0
0
0
0
0
0
0
)
;

boundaryField
{
    sides
    {
        type            zeroGradient;
    }
    empty
    {
        type            empty;
    }
}


// ************************************************************************* //
