/*--------------------------------*- C++ -*----------------------------------*\
| =========                 |                                                 |
| \\      /  F ield         | OpenFOAM: The Open Source CFD Toolbox           |
|  \\    /   O peration     | Version:  2312                                  |
|   \\  /    A nd           | Website:  www.openfoam.com                      |
|    \\/     M anipulation  |                                                 |
\*---------------------------------------------------------------------------*/
FoamFile
{
    version     2.0;
    format      ascii;
    arch        "LSB;label=32;scalar=64";
    class       volScalarField;
    location    "2";
    object      T;
}
// * * * * * * * * * * * * * * * * * * * * * * * * * * * * * * * * * * * * * //

dimensions      [0 0 0 1 0 0 0];

internalField   nonuniform List<scalar> 
1000
(
0
0
0
0
0
0
0
0
0
0
0
0
0
0
0
0
0
0
0
0
0
0
0
0
0
0
0
0
0
0
0
0
0
0
0
0
0
0
0
0
0
0
0
0
0
0
0
0
0
0
0
0
0
0
0
0
0
0
0
0
0
0
0
0
0
0
0
0
0
0
0
0
0
0
0
0
0
0
0
0
0
0
0
0
0
0
0
0
0
0
0
0
0
0
0
0
0
0
0
0
0
0
0
0
0
0
0
0
0
0
0
0
0
0
0
0
0
0
0
0
0
0
0
0
0
0
0
0
0
0
0
0
0
0
0
0
0
0
0
0
0
0
0
0
0
0
0
0
0
0
0
0
0
0
0
0
0
0
0
0
0
0
0
0
0
0
0
0
0
0
0
0
0
-4.94066e-324
2.96439e-323
-4.94066e-324
2.96439e-323
-4.94066e-324
2.96439e-323
-4.94066e-324
2.96439e-323
-4.94066e-324
2.96439e-323
-4.94066e-324
2.96439e-323
-4.94066e-324
2.96439e-323
-4.94066e-324
2.96439e-323
-4.94066e-324
2.96439e-323
-4.94066e-324
2.96439e-323
-4.94066e-324
2.96439e-323
-4.94066e-324
2.96439e-323
-4.94066e-324
2.96439e-323
-4.94066e-324
2.96439e-323
-4.94066e-324
2.96439e-323
-4.94066e-324
2.96439e-323
-4.94066e-324
2.96439e-323
-4.94066e-324
2.96439e-323
-4.94066e-324
2.96439e-323
-4.94066e-324
2.96439e-323
-4.94066e-324
2.96439e-323
-4.94066e-324
2.96439e-323
-4.94066e-324
2.96439e-323
-4.94066e-324
2.96439e-323
-4.94066e-324
2.96439e-323
-4.94066e-324
2.96439e-323
-4.94066e-324
2.96439e-323
-4.94066e-324
2.96439e-323
-3.45846e-323
6.71929e-322
-8.46829e-321
1.09016e-319
-1.40239e-318
1.80422e-317
-2.32105e-316
2.98623e-315
-3.84147e-314
4.94258e-313
-6.35792e-312
8.18047e-311
-1.05229e-309
1.35394e-308
-1.74165e-307
2.24089e-306
-2.8826e-305
3.70888e-304
-4.77097e-303
6.13855e-302
-7.89639e-301
1.01599e-299
-1.30693e-298
1.68155e-297
-2.16309e-296
2.78311e-295
-3.58016e-294
4.60623e-293
-5.92563e-292
7.62354e-291
-9.80773e-290
1.26174e-288
-1.62331e-287
2.08825e-286
-2.68676e-285
3.45621e-284
-4.44688e-283
5.72032e-282
-7.36003e-281
9.46765e-280
-1.21815e-278
1.56699e-277
-2.01616e-276
2.59351e-275
-3.33693e-274
4.29249e-273
-5.52293e-272
7.10448e-271
-9.14094e-270
1.17586e-268
-1.5129e-267
1.94618e-266
-2.50395e-265
3.22118e-264
-4.14417e-263
5.3315e-262
-6.85882e-261
8.82432e-260
-1.13518e-258
1.46053e-257
-1.8788e-256
2.41733e-255
-3.10958e-254
4.00092e-253
-5.14663e-252
6.6219e-251
-8.51816e-250
1.09599e-248
-1.40983e-247
1.81396e-246
-2.33341e-245
3.00228e-244
-3.86201e-243
4.96904e-242
-6.392e-241
8.2242e-240
-1.05794e-238
1.36117e-237
-1.751e-236
2.25284e-235
-2.89811e-234
3.72862e-233
-4.7967e-232
6.17116e-231
-7.93903e-230
1.02138e-228
-1.31399e-227
1.69047e-226
-2.17479e-225
2.79786e-224
-3.59951e-223
4.63069e-222
-5.95755e-221
7.66421e-220
-9.8603e-219
1.2685e-217
-1.63197e-216
2.09949e-215
-2.70105e-214
3.47486e-213
-4.47048e-212
5.75123e-211
-7.39907e-210
9.51882e-209
-1.22461e-207
1.57546e-206
-2.02685e-205
2.60752e-204
-3.35463e-203
4.31569e-202
-5.55222e-201
7.14288e-200
-9.18942e-199
1.18222e-197
-1.52092e-196
1.9567e-195
-2.51725e-194
3.23853e-193
-4.16628e-192
5.36007e-191
-6.8956e-190
8.87139e-189
-1.14129e-187
1.46829e-186
-1.88894e-185
2.43016e-184
-3.12638e-183
4.02215e-182
-5.17445e-181
6.65702e-180
-8.5642e-179
1.1018e-177
-1.41746e-176
1.82358e-175
-2.34602e-174
3.0182e-173
-3.88288e-172
4.99538e-171
-6.42657e-170
8.26777e-169
-1.06366e-167
1.36838e-166
-1.76047e-165
2.26479e-164
-2.91375e-163
3.74845e-162
-4.82253e-161
6.20404e-160
-7.98172e-159
1.02683e-157
-1.32105e-156
1.6995e-155
-2.18646e-154
2.81283e-153
-3.61879e-152
4.65549e-151
-5.98943e-150
7.70527e-149
-9.91307e-148
1.27529e-146
-1.64071e-145
2.11073e-144
-2.71551e-143
3.49347e-142
-4.4944e-141
5.78207e-140
-7.43859e-139
9.56993e-138
-1.23115e-136
1.58392e-135
-2.03767e-134
2.62153e-133
-3.37253e-132
4.33888e-131
-5.58185e-130
7.18124e-129
-9.2385e-128
1.18856e-126
-1.52906e-125
1.96717e-124
-2.53074e-123
3.25585e-122
-4.18862e-121
5.38873e-120
-6.93256e-119
8.91886e-118
-1.1474e-116
1.47616e-115
-1.89906e-114
2.44318e-113
-3.14311e-112
4.04369e-111
-5.20213e-110
6.69269e-109
-8.61003e-108
1.1077e-106
1.17058e-106
-5.28553e-105
4.00063e-104
1.71103e-103
-3.6408e-102
-1.19667e-102
1.72014e-100
-4.50512e-100
-7.72602e-99
5.2119e-98
3.31326e-97
-3.67623e-96
-1.44008e-95
2.01002e-94
6.7907e-94
-9.55511e-93
-3.59446e-92
3.7689e-91
2.12371e-90
-1.20889e-89
-1.19296e-88
2.77142e-88
6.91026e-87
-1.73453e-88
-3.7816e-85
-4.4698e-85
1.11356e-83
4.67464e-83
-1.73995e-82
-3.29105e-81
-1.36835e-81
1.30877e-79
3.77273e-79
-1.65409e-78
-3.10232e-77
-2.32211e-77
8.09693e-76
4.56017e-75
-2.81566e-75
-2.29202e-73
-6.53679e-73
1.56944e-72
4.82916e-71
9.08562e-71
-3.80765e-70
-8.69976e-69
-1.48044e-68
6.23934e-68
1.43391e-66
3.14269e-66
-6.70109e-66
-1.94216e-64
-7.38711e-64
1.43491e-64
2.00573e-62
1.50685e-61
1.25001e-61
-1.52442e-60
-2.45471e-59
-2.97891e-58
-3.38092e-57
-3.68728e-56
-3.8894e-55
-1.77515e-54
-1.26364e-54
1.47821e-53
1.95397e-52
1.93746e-51
1.78567e-50
1.5854e-49
1.36683e-48
1.14676e-47
9.37081e-47
7.46205e-46
5.79292e-45
4.38594e-44
3.23977e-43
2.33561e-42
1.64387e-41
1.12993e-40
7.58722e-40
4.9784e-39
3.19295e-38
2.00219e-37
1.22783e-36
7.36545e-36
4.32303e-35
2.48314e-34
1.39615e-33
7.68549e-33
4.14287e-32
2.18728e-31
1.13125e-30
5.73242e-30
2.84652e-29
1.38534e-28
6.60885e-28
3.09092e-27
1.41743e-26
6.37413e-26
2.81126e-25
1.21616e-24
5.16109e-24
2.1488e-23
8.77805e-23
3.51875e-22
1.38422e-21
5.34422e-21
2.02516e-20
7.53285e-20
2.75052e-19
9.85946e-19
3.46974e-18
1.19886e-17
4.06711e-17
1.35478e-16
4.4313e-16
1.42327e-15
4.48895e-15
1.39032e-14
4.22865e-14
1.26302e-13
3.70459e-13
1.06707e-12
3.01829e-12
8.38381e-12
2.28679e-11
6.12493e-11
1.61085e-10
4.15977e-10
1.05469e-09
2.62545e-09
6.41617e-09
1.53927e-08
3.62483e-08
8.3784e-08
1.90063e-07
4.23109e-07
9.24236e-07
1.98079e-06
4.16453e-06
8.5883e-06
1.737e-05
3.4449e-05
6.69834e-05
0.000127671
0.000238491
0.000436531
0.000782762
0.00137472
0.00236409
0.00397981
0.00655679
0.0105687
0.0166618
0.0256831
0.0386948
0.0569616
0.0818988
0.114968
0.157514
0.210543
0.27447
0.348857
0.432204
0.521863
0.614112
0.704451
0.78809
0.860586
0.918493
0.959908
0.98494
0.99634
0.999552
0.99998
1
1
1
1
1
1
1
1
1
1
1
1
1
1
1
1
1
1
1
1
1
1
1
1
1
1
1
1
1
1
1
1
1
1
1
1
1
1
1
1
1
1
1
1
1
1
1
1
1
1
1
1
1
1
1
1
1
1
1
1
1
1
0.999999
0.999998
0.999996
0.999991
0.999983
0.999965
0.999933
0.999872
0.999761
0.999563
0.999216
0.998623
0.997633
0.996015
0.993436
0.98942
0.983322
0.974293
0.961272
0.942994
0.918043
0.884957
0.842394
0.789347
0.725403
0.651003
0.567646
0.477985
0.38574
0.295413
0.211793
0.13932
0.0814385
0.0400488
0.0150378
0.00365203
0.000446234
2.00187e-05
2.38085e-07
5.62686e-10
2.0934e-13
1.84183e-17
1.59983e-21
1.37651e-25
1.17739e-29
1.00454e-33
8.57219e-38
7.3294e-42
6.28394e-46
5.40205e-50
4.65371e-54
4.01431e-58
3.46471e-62
2.99032e-66
2.57996e-70
2.2248e-74
1.91762e-78
1.65222e-82
1.42322e-86
1.22582e-90
1.05579e-94
9.09391e-99
7.83348e-103
6.74823e-107
5.81364e-111
5.00864e-115
4.31513e-119
3.71762e-123
3.20279e-127
2.75918e-131
2.37697e-135
2.04766e-139
1.76394e-143
1.51952e-147
1.30896e-151
1.12756e-155
9.71297e-160
8.36683e-164
7.20722e-168
6.20827e-172
5.34774e-176
4.60646e-180
3.96789e-184
3.41782e-188
2.94399e-192
2.53582e-196
2.18423e-200
1.88138e-204
1.62051e-208
1.3958e-212
1.20224e-216
1.03552e-220
8.9192e-225
7.68226e-229
6.61683e-233
5.69914e-237
4.9087e-241
4.22787e-245
3.64145e-249
3.13636e-253
2.70131e-257
2.3266e-261
2.00386e-265
1.72588e-269
1.48645e-273
1.28023e-277
1.10261e-281
9.49632e-286
8.17872e-290
7.04388e-294
6.06647e-298
5.22464e-302
4.4996e-306
3.87514e-310
3.33732e-314
2.87412e-318
2.37152e-322
0
0
0
0
0
0
0
0
0
0
0
0
0
0
0
0
0
0
0
0
0
0
0
0
0
0
0
0
0
0
0
0
0
0
0
0
0
0
0
0
0
0
0
0
0
0
0
0
0
0
0
0
0
0
0
0
0
0
0
0
0
0
0
0
0
0
0
0
0
0
0
0
0
0
0
0
0
0
0
0
0
0
0
0
0
0
0
0
0
0
0
0
0
0
0
0
0
0
0
0
0
0
0
0
0
0
0
0
0
0
0
0
0
0
0
0
0
0
0
0
0
0
0
0
0
0
0
0
0
0
0
0
0
0
0
0
0
0
0
0
0
0
0
0
0
0
0
0
0
0
0
0
0
0
0
0
0
0
0
0
0
0
0
0
0
0
0
0
0
0
0
0
0
0
0
0
0
0
0
0
0
0
0
0
0
0
0
0
0
0
0
0
0
0
0
0
0
0
0
0
0
0
0
0
0
0
0
0
0
0
0
0
0
0
0
0
0
0
0
0
)
;

boundaryField
{
    sides
    {
        type            zeroGradient;
    }
    empty
    {
        type            empty;
    }
}


// ************************************************************************* //
