/*--------------------------------*- C++ -*----------------------------------*\
| =========                 |                                                 |
| \\      /  F ield         | OpenFOAM: The Open Source CFD Toolbox           |
|  \\    /   O peration     | Version:  2312                                  |
|   \\  /    A nd           | Website:  www.openfoam.com                      |
|    \\/     M anipulation  |                                                 |
\*---------------------------------------------------------------------------*/
FoamFile
{
    version     2.0;
    format      ascii;
    arch        "LSB;label=32;scalar=64";
    class       volScalarField;
    location    "1.5";
    object      T;
}
// * * * * * * * * * * * * * * * * * * * * * * * * * * * * * * * * * * * * * //

dimensions      [0 0 0 1 0 0 0];

internalField   nonuniform List<scalar> 
1000
(
0
0
0
0
0
0
0
0
0
0
0
0
0
0
0
0
0
0
0
0
0
0
0
0
0
0
0
0
0
0
0
0
0
0
0
0
0
0
0
0
0
0
0
0
0
0
0
0
0
0
0
0
0
0
0
0
0
0
0
0
0
0
0
0
0
0
0
0
0
0
0
0
0
0
0
0
0
0
0
0
0
0
0
0
0
0
0
0
0
0
0
0
0
0
0
0
0
0
0
0
0
0
0
0
0
0
0
0
0
0
0
0
0
0
0
0
0
0
0
0
0
0
0
0
0
0
0
0
0
0
0
0
0
0
0
0
0
0
0
0
0
0
0
0
0
0
0
0
0
0
0
0
0
0
0
0
0
0
0
0
0
0
0
0
0
0
0
0
0
0
0
0
0
-4.94066e-324
2.96439e-323
-4.94066e-324
2.96439e-323
-4.94066e-324
2.96439e-323
-4.94066e-324
2.96439e-323
-4.94066e-324
2.96439e-323
-4.94066e-324
2.96439e-323
-4.94066e-324
2.96439e-323
-4.94066e-324
2.96439e-323
-4.94066e-324
2.96439e-323
-4.94066e-324
2.96439e-323
-4.94066e-324
2.96439e-323
-4.94066e-324
2.96439e-323
-4.94066e-324
2.96439e-323
-4.94066e-324
2.96439e-323
-4.94066e-324
2.96439e-323
-4.94066e-324
2.96439e-323
-4.94066e-324
2.96439e-323
-4.94066e-324
2.96439e-323
-4.94066e-324
2.96439e-323
-4.94066e-324
2.96439e-323
-4.94066e-324
2.96439e-323
-4.94066e-324
4.44659e-322
-5.54836e-321
7.16049e-320
-9.21092e-319
1.185e-317
-1.52451e-316
1.96129e-315
-2.52321e-314
3.24611e-313
-4.17614e-312
5.37262e-311
-6.9119e-310
8.89219e-309
-1.14398e-307
1.47174e-306
-1.8934e-305
2.43587e-304
-3.13375e-303
4.03159e-302
-5.18665e-301
6.67266e-300
-8.58439e-299
1.10439e-297
-1.4208e-296
1.82786e-295
-2.35155e-294
3.02528e-293
-3.89204e-292
5.00713e-291
-6.44169e-290
8.28726e-289
-1.06616e-287
1.37162e-286
-1.76459e-285
2.27016e-284
-2.92057e-283
3.75732e-282
-4.83381e-281
6.21872e-280
-8.00041e-279
1.02926e-277
-1.32414e-276
1.70351e-275
-2.19158e-274
2.81947e-273
-3.62727e-272
4.66649e-271
-6.00347e-270
7.72348e-269
-9.9363e-268
1.27831e-266
-1.64455e-265
2.11572e-264
-2.72188e-263
3.50171e-262
-4.50497e-261
5.79566e-260
-7.45615e-259
9.59236e-258
-1.23406e-256
1.58762e-255
-2.04249e-254
2.62767e-253
-3.38051e-252
4.34904e-251
-5.59505e-250
7.19806e-249
-9.26033e-248
1.19135e-246
-1.53267e-245
1.97179e-244
-2.53671e-243
3.2635e-242
-4.1985e-241
5.40139e-240
-6.94891e-239
8.9398e-238
-1.15011e-236
1.47962e-235
-1.90354e-234
2.44891e-233
-3.15053e-232
4.05318e-231
-5.21442e-230
6.70838e-229
-8.63036e-228
1.1103e-226
-1.4284e-225
1.83765e-224
-2.36414e-223
3.04148e-222
-3.91288e-221
5.03394e-220
-6.47618e-219
8.33163e-218
-1.07187e-216
1.37896e-215
-1.77404e-214
2.28231e-213
-2.9362e-212
3.77744e-211
-4.85969e-210
6.25201e-209
-8.04324e-208
1.03477e-206
-1.33123e-205
1.71264e-204
-2.20331e-203
2.83457e-202
-3.64669e-201
4.69148e-200
-6.03561e-199
7.76484e-198
-9.9895e-197
1.28515e-195
-1.65335e-194
2.12705e-193
-2.73646e-192
3.52046e-191
-4.52909e-190
5.82669e-189
-7.49607e-188
9.64372e-187
-1.24067e-185
1.59613e-184
-2.05342e-183
2.64174e-182
-3.39861e-181
4.37232e-180
-5.62501e-179
7.2366e-178
-9.30992e-177
1.19772e-175
-1.54088e-174
1.98235e-173
-2.5503e-172
3.28097e-171
-4.22098e-170
5.43031e-169
-6.98611e-168
8.98767e-167
-1.15627e-165
1.48754e-164
-1.91373e-163
2.46202e-162
-3.1674e-161
4.07488e-160
-5.24234e-159
6.7443e-158
-8.67657e-157
1.11624e-155
-1.43605e-154
1.84749e-153
-2.3768e-152
3.05777e-151
-3.93383e-150
5.06089e-149
-6.51085e-148
8.37624e-147
-1.07761e-145
1.38635e-144
-1.78354e-143
2.29453e-142
-2.95193e-141
3.79766e-140
-4.88571e-139
6.28549e-138
-8.08631e-137
1.04031e-135
-1.33836e-134
1.7218e-133
-2.21511e-132
2.84975e-131
-3.66621e-130
4.7166e-129
-6.06792e-128
7.80641e-127
-1.0043e-125
1.29203e-124
-1.66221e-123
2.13844e-122
-2.75111e-121
3.53931e-120
-4.55334e-119
5.85789e-118
-7.5362e-117
9.69536e-116
-1.24731e-114
1.60467e-113
-2.06442e-112
2.65588e-111
-3.4168e-110
4.39573e-109
-5.65513e-108
7.27535e-107
-9.35976e-106
1.20414e-104
-1.54913e-103
1.99296e-102
-2.56395e-101
3.29853e-100
-4.24358e-99
5.45938e-98
-7.02352e-97
9.03579e-96
-1.16246e-94
1.49551e-93
-1.92398e-92
2.4752e-91
-3.18436e-90
4.09669e-89
-5.27041e-88
6.78041e-87
-8.72303e-86
1.12222e-84
-1.44374e-83
1.85738e-82
-2.38953e-81
1.21072e-80
8.27673e-80
-1.53975e-78
4.91171e-80
7.11684e-77
-3.02404e-76
-3.0048e-75
3.04516e-74
1.19437e-73
-1.8513e-72
-5.21827e-72
9.16063e-71
2.68678e-70
-3.66708e-69
-1.57848e-68
1.1463e-67
9.57009e-67
-2.25139e-66
-5.71902e-65
-1.32203e-65
2.8029e-63
4.79687e-63
-5.67189e-62
-4.60431e-61
2.67667e-61
2.54177e-59
4.60544e-59
-3.34181e-58
-4.85094e-57
-3.63143e-57
1.05381e-55
7.36903e-55
9.49024e-56
-2.19092e-53
-4.16354e-52
-6.69423e-51
-1.02594e-49
-7.81863e-49
-6.95154e-49
7.71165e-48
1.32561e-46
1.69471e-45
2.00148e-44
2.24973e-43
2.42155e-42
2.50125e-41
2.4825e-40
2.37007e-39
2.17874e-38
1.93029e-37
1.64963e-36
1.36095e-35
1.08473e-34
8.35861e-34
6.23109e-33
4.49662e-32
3.14309e-31
2.1292e-30
1.3986e-29
8.91256e-29
5.51246e-28
3.31066e-27
1.93148e-26
1.09507e-25
6.03574e-25
3.23526e-24
1.68702e-23
8.56054e-23
4.2284e-22
2.0336e-21
9.52543e-21
4.34647e-20
1.93251e-19
8.37397e-19
3.53716e-18
1.4567e-17
5.84997e-17
2.29126e-16
8.75376e-16
3.26268e-15
1.18649e-14
4.2103e-14
1.45802e-13
4.92775e-13
1.62556e-12
5.23426e-12
1.64522e-11
5.04806e-11
1.51206e-10
4.42143e-10
1.26213e-09
3.51716e-09
9.56778e-09
2.54066e-08
6.58528e-08
1.66596e-07
4.11326e-07
9.91045e-07
2.32991e-06
5.344e-06
1.19567e-05
2.6092e-05
5.55229e-05
0.000115191
0.000232941
0.000459044
0.000881301
0.00164789
0.00300007
0.00531598
0.00916478
0.0153665
0.0250472
0.0396714
0.0610267
0.0911322
0.132041
0.185527
0.252664
0.33336
0.425938
0.526893
0.630975
0.731677
0.822121
0.896213
0.949815
0.981917
0.995942
0.999565
0.999984
1
1
1
1
1
1
1
1
1
1
1
1
1
1
1
1
1
1
1
1
1
1
1
1
1
1
1
1
1
1
1
1
1
1
1
1
1
1
1
1
1
1
1
1
1
1
1
1
1
1
1
1
1
1
1
1
1
1
1
1
1
1
1
1
1
1
0.999999
0.999998
0.999995
0.999988
0.999974
0.999944
0.999885
0.999767
0.99954
0.999117
0.998349
0.996995
0.994677
0.990823
0.984615
0.974926
0.96029
0.938919
0.908795
0.867864
0.814356
0.747198
0.666483
0.573893
0.472935
0.368861
0.268178
0.17776
0.1037
0.0501304
0.0180568
0.0040499
0.000434107
1.61231e-05
1.50247e-07
2.65504e-10
7.11489e-14
6.07276e-18
5.14482e-22
4.34684e-26
3.67724e-30
3.1226e-34
2.66412e-38
2.28273e-42
1.96201e-46
1.68921e-50
1.45502e-54
1.25284e-58
1.07789e-62
9.26537e-67
7.95813e-71
6.83155e-75
5.86268e-79
5.03074e-83
4.31707e-87
3.70512e-91
3.18036e-95
2.73027e-99
2.34407e-103
2.01259e-107
1.72801e-111
1.48364e-115
1.27379e-119
1.09359e-123
9.38855e-128
8.05997e-132
6.9193e-136
5.94e-140
5.09927e-144
4.37751e-148
3.75789e-152
3.22595e-156
2.76929e-160
2.37724e-164
2.04067e-168
1.75172e-172
1.50367e-176
1.29072e-180
1.10791e-184
9.50974e-189
8.16258e-193
7.00615e-197
6.01347e-201
5.16135e-205
4.42992e-209
3.80208e-213
3.26317e-217
2.8006e-221
2.40357e-225
2.0628e-229
1.77031e-233
1.51927e-237
1.30382e-241
1.1189e-245
9.60195e-250
8.23991e-254
7.07098e-258
6.0678e-262
5.20689e-266
4.46806e-270
3.83403e-274
3.28993e-278
2.82301e-282
2.42233e-286
2.0785e-290
1.78346e-294
1.53028e-298
1.31302e-302
1.1266e-306
9.6664e-311
8.2938e-315
7.11568e-319
5.43472e-323
0
0
0
0
0
0
0
0
0
0
0
0
0
0
0
0
0
0
0
0
0
0
0
0
0
0
0
0
0
0
0
0
0
0
0
0
0
0
0
0
0
0
0
0
0
0
0
0
0
0
0
0
0
0
0
0
0
0
0
0
0
0
0
0
0
0
0
0
0
0
0
0
0
0
0
0
0
0
0
0
0
0
0
0
0
0
0
0
0
0
0
0
0
0
0
0
0
0
0
0
0
0
0
0
0
0
0
0
0
0
0
0
0
0
0
0
0
0
0
0
0
0
0
0
0
0
0
0
0
0
0
0
0
0
0
0
0
0
0
0
0
0
0
0
0
0
0
0
0
0
0
0
0
0
0
0
0
0
0
0
0
0
0
0
0
0
0
0
0
0
0
0
0
0
0
0
0
0
0
0
0
0
0
0
0
0
0
0
0
0
0
0
0
0
0
0
0
0
0
0
0
0
0
0
0
0
0
0
0
0
0
0
0
0
0
0
0
0
0
0
0
0
0
0
0
0
0
0
0
0
0
0
0
0
0
0
0
0
0
0
0
0
0
0
0
0
0
0
0
0
0
0
0
0
0
0
)
;

boundaryField
{
    sides
    {
        type            zeroGradient;
    }
    empty
    {
        type            empty;
    }
}


// ************************************************************************* //
