/*--------------------------------*- C++ -*----------------------------------*\
| =========                 |                                                 |
| \\      /  F ield         | OpenFOAM: The Open Source CFD Toolbox           |
|  \\    /   O peration     | Version:  2312                                  |
|   \\  /    A nd           | Website:  www.openfoam.com                      |
|    \\/     M anipulation  |                                                 |
\*---------------------------------------------------------------------------*/
FoamFile
{
    version     2.0;
    format      ascii;
    arch        "LSB;label=32;scalar=64";
    class       volScalarField;
    location    "3.4";
    object      T;
}
// * * * * * * * * * * * * * * * * * * * * * * * * * * * * * * * * * * * * * //

dimensions      [0 0 0 1 0 0 0];

internalField   nonuniform List<scalar> 
1000
(
0
0
0
0
0
0
0
0
0
0
0
0
0
0
0
0
0
0
0
0
0
0
0
0
0
0
0
0
0
0
0
0
0
0
0
0
0
0
0
0
0
0
0
0
0
0
0
0
0
0
0
0
0
0
0
0
0
0
0
0
0
0
0
0
0
0
0
0
0
0
0
0
0
0
0
0
0
0
0
0
0
0
0
0
0
0
0
0
0
0
0
0
0
0
0
0
0
0
0
0
0
0
0
0
0
0
0
0
0
0
0
0
0
0
0
0
0
0
0
0
0
0
0
0
0
0
0
0
0
0
0
0
0
0
0
0
0
0
0
0
0
0
0
0
0
0
0
0
0
0
0
0
0
0
0
0
0
0
0
0
0
0
0
0
0
0
0
0
0
0
0
0
0
0
0
0
0
0
0
0
0
0
0
0
0
0
0
0
0
0
0
0
0
0
0
0
0
0
0
0
0
0
0
0
0
0
0
0
0
0
0
0
0
0
0
0
0
0
0
0
0
0
0
0
0
0
0
0
0
0
0
0
0
0
0
0
0
0
0
0
0
0
0
0
0
0
0
0
0
0
0
0
0
0
0
0
0
0
0
0
0
0
0
0
0
0
0
0
0
0
0
0
0
0
0
0
0
0
0
0
0
0
0
0
0
0
0
0
0
0
0
0
0
0
0
0
0
0
0
0
0
0
0
0
0
0
0
0
0
0
0
0
0
0
0
0
0
0
0
0
0
0
0
0
0
0
0
0
0
0
0
0
0
0
0
0
0
0
0
0
0
0
0
0
0
0
0
0
0
0
0
0
0
0
0
0
0
0
0
0
0
0
0
0
0
0
0
0
0
0
0
0
0
0
0
0
0
0
0
0
0
0
0
0
0
0
0
0
0
0
0
0
0
0
0
0
0
0
0
0
0
0
0
0
4.05106e-128
-2.71946e-112
1.63407e-104
-9.44073e-101
-1.1491e-98
-5.49925e-97
-5.27134e-96
9.45973e-94
7.43296e-92
3.36989e-90
1.14262e-88
3.15487e-87
7.40565e-86
1.51772e-84
2.76579e-83
4.54285e-82
6.79618e-81
9.33825e-80
1.18661e-78
1.40244e-77
1.54913e-76
1.60592e-75
1.56799e-74
1.4464e-73
1.26395e-72
1.04879e-71
8.28046e-71
6.23145e-70
4.47661e-69
3.07382e-68
2.01936e-67
1.2702e-66
7.65311e-66
4.41717e-65
2.44129e-64
1.29068e-63
6.51487e-63
3.12928e-62
1.42228e-61
6.05679e-61
2.37213e-60
8.20727e-60
2.2387e-59
2.37693e-59
-2.67624e-58
-2.89752e-57
-2.01597e-56
-1.18413e-55
-6.307e-55
-3.13834e-54
-1.48161e-53
-6.69699e-53
-2.91536e-52
-1.22724e-51
-5.01031e-51
-1.98817e-50
-7.68145e-50
-2.89354e-49
-1.06391e-48
-3.82198e-48
-1.34257e-47
-4.61505e-47
-1.55346e-46
-5.12373e-46
-1.65692e-45
-5.25665e-45
-1.63707e-44
-5.00771e-44
-1.50551e-43
-4.45111e-43
-1.29494e-42
-3.70926e-42
-1.0467e-41
-2.91127e-41
-7.98486e-41
-2.16045e-40
-5.76823e-40
-1.52e-39
-3.95355e-39
-1.01498e-38
-2.57158e-38
-6.42856e-38
-1.58515e-37
-3.85406e-37
-9.23626e-37
-2.18094e-36
-5.07243e-36
-1.16172e-35
-2.61956e-35
-5.8156e-35
-1.27138e-34
-2.73809e-34
-5.81307e-34
-1.21782e-33
-2.52095e-33
-5.165e-33
-1.04942e-32
-2.11882e-32
-4.2596e-32
-8.54022e-32
-1.70917e-31
-3.41423e-31
-6.79967e-31
-1.34708e-30
-2.6462e-30
-5.13416e-30
-9.79443e-30
-1.82794e-29
-3.31835e-29
-5.81901e-29
-9.76711e-29
-1.548e-28
-2.26328e-28
-2.90755e-28
-2.84784e-28
-6.12513e-29
6.77998e-28
2.4745e-27
6.21087e-27
1.31463e-26
2.47279e-26
4.18526e-26
6.30033e-26
8.03698e-26
7.27924e-26
-5.56624e-27
-2.40886e-25
-7.76618e-25
-1.82153e-24
-3.6252e-24
-6.37439e-24
-9.92974e-24
-1.32786e-23
-1.3538e-23
-4.32801e-24
2.65921e-23
1.00285e-22
2.49481e-22
5.19532e-22
9.63954e-22
1.62856e-21
2.51516e-21
3.51328e-21
4.28759e-21
4.11433e-21
1.67573e-21
-5.14393e-21
-1.93564e-20
-4.46632e-20
-8.46207e-20
-1.40707e-19
-2.08706e-19
-2.72827e-19
-2.97222e-19
-2.15279e-19
8.1565e-20
7.5134e-19
1.99782e-18
4.04347e-18
7.06199e-18
1.10497e-17
1.5616e-17
1.96855e-17
2.11361e-17
1.63703e-17
-2.00198e-19
-3.65487e-17
-1.02929e-16
-2.10233e-16
-3.64145e-16
-5.53064e-16
-7.3096e-16
-8.30681e-16
-5.70117e-16
1.2928e-15
5.18703e-15
8.39233e-15
4.44855e-15
-1.33427e-14
-3.16964e-14
-2.07338e-14
3.71167e-14
9.39597e-14
5.56347e-14
-1.10388e-13
-2.56734e-13
-1.35981e-13
3.20187e-13
6.87383e-13
3.21857e-13
-8.7342e-13
-1.80614e-12
-8.57808e-13
2.25009e-12
4.73219e-12
2.55208e-12
-5.3812e-12
-1.24196e-11
-8.09183e-12
1.14726e-11
3.25797e-11
2.64104e-11
-2.14505e-11
-8.26947e-11
-8.15839e-11
2.34748e-11
1.93406e-10
2.46991e-10
4.20815e-11
-4.01122e-10
-6.96176e-10
-3.87729e-10
6.58874e-10
1.77687e-09
1.63672e-09
-4.86043e-10
-3.88502e-09
-5.41359e-09
-2.1849e-09
6.20315e-09
1.45332e-08
1.34109e-08
-2.5667e-09
-2.94023e-08
-4.55738e-08
-2.836e-08
3.12933e-08
1.08331e-07
1.33743e-07
5.45498e-08
-1.41094e-07
-3.62413e-07
-3.92749e-07
-1.17924e-07
4.85922e-07
1.14061e-06
1.22857e-06
4.22939e-07
-1.38529e-06
-3.44427e-06
-4.08461e-06
-2.14841e-06
2.91841e-06
9.6476e-06
1.37113e-05
1.08413e-05
-1.48757e-06
-2.21445e-05
-4.27867e-05
-4.73634e-05
-2.69792e-05
2.52291e-05
0.000100684
0.00016794
0.00017444
9.67619e-05
-9.07687e-05
-0.000365616
-0.000635832
-0.000741972
-0.000573553
-3.2572e-05
0.000905391
0.00209764
0.00317159
0.0035296
0.00282919
0.000655815
-0.00324406
-0.00870038
-0.0149146
-0.0203955
-0.0227406
-0.0204747
-0.0117996
0.00552275
0.033238
0.0723689
0.123059
0.18451
0.255042
0.332259
0.413301
0.495133
0.574841
0.649879
0.718252
0.778611
0.830274
0.873163
0.907703
0.934683
0.955116
0.970109
0.980756
0.988061
0.992895
0.995968
0.997839
0.998922
0.999512
0.999811
0.999946
0.999995
1
1
1
1
1
1
1
1
1
1
1
1
1
1
1
1
1
1
1
1
1
1
1
1
1
1
1
1
1
1
1
0.999999
0.999999
1
1
1
1
1
0.999997
0.99999
0.999986
0.999989
1
1.00002
1.00004
1.00005
1.00003
0.999975
0.999899
0.999832
0.999826
0.999904
1.00009
1.00037
1.00064
1.00074
1.00057
1.00003
0.999093
0.997901
0.996829
0.996472
0.997174
0.99935
1.00325
1.00871
1.01492
1.02039
1.02273
1.02045
1.01177
0.994429
0.9667
0.927555
0.876853
0.815392
0.744853
0.667634
0.586594
0.504767
0.425067
0.350039
0.281677
0.22133
0.169679
0.1268
0.0922689
0.0652962
0.044869
0.0298807
0.0192374
0.0119344
0.00710287
0.00403036
0.00216025
0.00107767
0.000487352
0.000189013
5.37509e-05
5.11133e-06
1.07372e-16
1.05781e-16
1.04454e-16
1.01742e-16
9.78982e-17
9.31785e-17
8.78123e-17
8.20041e-17
7.59342e-17
6.97578e-17
6.3606e-17
5.75865e-17
5.17852e-17
4.62677e-17
4.10817e-17
3.62591e-17
3.1818e-17
2.77647e-17
2.40964e-17
2.08026e-17
1.78669e-17
1.52689e-17
1.2985e-17
1.09903e-17
9.25874e-18
7.76459e-18
6.48266e-18
5.38886e-18
4.46058e-18
3.67685e-18
3.01847e-18
2.46811e-18
2.01021e-18
1.63101e-18
1.31838e-18
1.06176e-18
8.52018e-19
6.813e-19
5.42906e-19
4.31159e-19
3.41276e-19
2.6925e-19
2.11746e-19
1.66001e-19
1.29736e-19
1.01087e-19
7.85295e-20
6.08267e-20
4.69786e-20
3.618e-20
2.77854e-20
2.12795e-20
1.62524e-20
1.23793e-20
9.40407e-21
7.12499e-21
5.3841e-21
4.058e-21
3.05064e-21
2.28747e-21
1.71086e-21
1.27637e-21
9.49823e-22
7.05051e-22
5.22052e-22
3.85591e-22
2.84094e-22
2.08796e-22
1.53077e-22
1.11951e-22
8.1673e-23
5.94376e-23
4.31497e-23
3.12485e-23
2.25744e-23
1.62682e-23
1.1695e-23
8.38688e-24
5.9998e-24
4.28166e-24
3.04807e-24
2.1646e-24
1.53345e-24
1.08368e-24
7.63965e-25
5.37261e-25
3.76911e-25
2.63775e-25
1.84149e-25
1.28248e-25
8.9099e-26
6.17505e-26
4.26926e-26
2.94449e-26
2.02589e-26
1.39049e-26
9.52075e-27
6.50315e-27
4.43126e-27
3.0122e-27
2.04266e-27
1.38185e-27
9.32578e-28
6.27867e-28
4.21706e-28
2.82563e-28
1.88879e-28
1.25955e-28
8.37949e-29
5.56145e-29
3.68238e-29
2.43245e-29
1.603e-29
1.0539e-29
6.91264e-30
4.52346e-30
2.95312e-30
1.92343e-30
1.24985e-30
8.10274e-31
5.24079e-31
3.38186e-31
2.17727e-31
1.39851e-31
8.96236e-32
5.73036e-32
3.6555e-32
2.3266e-32
1.47742e-32
9.36056e-33
5.91717e-33
3.73202e-33
2.34852e-33
1.47457e-33
9.23767e-34
5.77412e-34
3.60114e-34
2.24091e-34
1.39137e-34
8.61985e-35
5.32837e-35
3.28648e-35
2.0226e-35
1.24204e-35
7.61043e-36
4.65301e-36
2.83865e-36
1.728e-36
1.04962e-36
6.36185e-37
3.84765e-37
2.32205e-37
1.39835e-37
8.40285e-38
5.0386e-38
3.01485e-38
1.8001e-38
1.07252e-38
6.37671e-39
3.78328e-39
2.23988e-39
1.32332e-39
7.80184e-40
4.59006e-40
2.69484e-40
1.57885e-40
9.231e-41
5.38585e-41
3.13589e-41
1.8221e-41
1.05654e-41
6.11377e-42
3.53054e-42
2.03463e-42
1.17015e-42
6.71606e-43
3.84685e-43
2.19894e-43
1.25443e-43
7.14167e-44
4.05769e-44
2.30084e-44
1.30203e-44
7.35342e-45
4.14467e-45
2.33145e-45
1.30887e-45
7.33345e-46
4.10072e-46
2.28852e-46
1.27466e-46
7.08562e-47
)
;

boundaryField
{
    sides
    {
        type            zeroGradient;
    }
    empty
    {
        type            empty;
    }
}


// ************************************************************************* //
