/*--------------------------------*- C++ -*----------------------------------*\
| =========                 |                                                 |
| \\      /  F ield         | OpenFOAM: The Open Source CFD Toolbox           |
|  \\    /   O peration     | Version:  2312                                  |
|   \\  /    A nd           | Website:  www.openfoam.com                      |
|    \\/     M anipulation  |                                                 |
\*---------------------------------------------------------------------------*/
FoamFile
{
    version     2.0;
    format      ascii;
    arch        "LSB;label=32;scalar=64";
    class       volScalarField;
    location    "1.5";
    object      T;
}
// * * * * * * * * * * * * * * * * * * * * * * * * * * * * * * * * * * * * * //

dimensions      [0 0 0 1 0 0 0];

internalField   nonuniform List<scalar> 
1000
(
0
0
0
0
0
0
0
0
0
0
0
0
0
0
0
0
0
0
0
0
0
0
0
0
0
0
0
0
0
0
0
0
0
0
0
0
0
0
0
0
0
0
0
0
0
0
0
0
0
0
0
0
0
0
0
0
0
0
0
0
0
0
0
0
0
0
0
0
0
0
0
0
0
0
0
0
0
0
0
0
0
0
0
0
0
0
0
0
0
0
0
0
0
0
0
0
0
0
0
0
0
0
0
0
0
0
0
0
0
0
0
0
0
0
0
0
0
0
0
0
0
0
0
0
0
0
0
0
0
0
0
0
0
0
0
0
0
0
0
0
0
0
0
0
0
0
0
0
0
0
0
0
0
0
0
0
0
0
0
0
0
0
0
0
0
0
0
0
0
0
0
0
0
0
0
0
0
0
0
0
0
0
0
0
0
0
0
0
0
0
0
0
0
0
0
0
0
0
0
0
0
0
0
0
0
0
0
0
0
0
0
0
0
0
0
0
0
0
0
0
0
0
0
0
0
0
0
0
0
0
0
0
0
0
0
0
0
0
0
0
0
0
0
0
0
0
0
0
0
0
0
0
0
0
0
0
0
0
0
0
0
0
0
0
0
0
0
0
0
0
6.42285e-323
1.33002e-320
2.03582e-318
3.09339e-316
4.67664e-314
7.03446e-312
1.05272e-309
1.56735e-307
2.32154e-305
3.42082e-303
5.01431e-301
7.31147e-299
1.06047e-296
1.52994e-294
2.19542e-292
3.13339e-290
4.44784e-288
6.27921e-286
8.81588e-284
1.23088e-281
1.70899e-279
2.35949e-277
3.2392e-275
4.42159e-273
6.00102e-271
8.09765e-269
1.08633e-266
1.44884e-264
1.92093e-262
2.53173e-260
3.3168e-258
4.31918e-256
5.59038e-254
7.19153e-252
9.19436e-250
1.16821e-247
1.47503e-245
1.85072e-243
2.30738e-241
2.85834e-239
3.51807e-237
4.302e-235
5.22624e-233
6.30722e-231
7.56126e-229
9.00399e-227
1.06497e-224
1.25106e-222
1.45959e-220
1.69111e-218
1.94572e-216
2.22294e-214
2.52166e-212
2.84011e-210
3.17575e-208
3.52526e-206
3.88458e-204
4.2489e-202
4.61277e-200
4.97016e-198
5.31464e-196
5.63952e-194
5.93807e-192
6.20374e-190
6.43036e-188
6.6124e-186
6.74517e-184
6.82503e-182
6.84952e-180
6.81751e-178
6.72927e-176
6.58643e-174
6.39202e-172
6.15028e-170
5.86657e-168
5.54711e-166
5.19883e-164
4.82903e-162
4.4452e-160
4.0547e-158
3.66455e-156
3.28121e-154
2.91043e-152
2.55708e-150
2.22511e-148
1.91748e-146
1.63621e-144
1.38237e-142
1.15622e-140
9.57279e-139
7.84448e-137
6.3616e-135
5.10496e-133
4.0531e-131
3.18343e-129
2.4732e-127
1.90029e-125
1.44384e-123
1.08466e-121
8.05534e-120
5.9132e-118
4.28987e-116
3.07526e-114
2.17804e-112
1.5238e-110
1.05291e-108
7.18422e-107
4.83973e-105
3.21836e-103
2.11222e-101
1.36789e-99
8.73944e-98
5.50745e-96
3.42263e-94
2.09709e-92
1.26657e-90
7.53866e-89
4.42089e-87
2.55371e-85
1.45268e-83
8.13567e-82
4.4846e-80
2.43245e-78
1.29786e-76
6.80997e-75
3.51291e-73
1.78095e-71
8.87076e-70
4.33953e-68
2.08423e-66
9.82442e-65
4.54322e-63
2.06035e-61
9.15929e-60
3.98967e-58
1.70204e-56
7.1082e-55
2.90463e-53
1.16076e-51
4.53397e-50
1.73005e-48
6.445e-47
2.34263e-45
8.3027e-44
2.86727e-42
9.6414e-41
3.15428e-39
1.00323e-37
3.0993e-36
9.29184e-35
2.7008e-33
7.6031e-32
2.07071e-30
5.44969e-29
1.3842e-27
3.38859e-26
7.98359e-25
1.8074e-23
3.92511e-22
8.16179e-21
1.62174e-19
3.0724e-18
5.53634e-17
9.46348e-16
1.52992e-14
2.3315e-13
3.33676e-12
4.46585e-11
5.56266e-10
6.41292e-09
6.7988e-08
6.57865e-07
5.75803e-06
4.50969e-05
0.000311886
0.0018734
0.00956923
0.0404399
0.136366
0.350113
0.649887
0.863634
0.95956
0.990431
0.998127
0.999688
0.999955
0.999994
0.999999
1
1
1
1
1
1
1
1
1
1
1
1
1
1
1
1
1
1
1
1
1
1
1
1
1
1
1
1
1
1
1
1
1
1
1
1
1
1
1
1
1
1
1
1
1
1
1
1
1
1
1
1
1
1
1
1
1
1
1
1
1
1
1
1
1
1
1
1
1
1
1
1
1
1
1
1
1
1
1
1
1
1
0.999999
0.999994
0.999955
0.999688
0.998127
0.990431
0.95956
0.863634
0.649887
0.350113
0.136366
0.0404399
0.00956923
0.0018734
0.000311886
4.50969e-05
5.75803e-06
6.57865e-07
6.7988e-08
6.41292e-09
5.56266e-10
4.46585e-11
3.33676e-12
2.3315e-13
1.52992e-14
9.46348e-16
5.53634e-17
3.0724e-18
1.62174e-19
8.16179e-21
3.92511e-22
1.8074e-23
7.98359e-25
3.38859e-26
1.3842e-27
5.44969e-29
2.07071e-30
7.6031e-32
2.7008e-33
9.29184e-35
3.0993e-36
1.00323e-37
3.15428e-39
9.6414e-41
2.86727e-42
8.3027e-44
2.34263e-45
6.445e-47
1.73005e-48
4.53397e-50
1.16076e-51
2.90463e-53
7.1082e-55
1.70204e-56
3.98967e-58
9.15929e-60
2.06035e-61
4.54322e-63
9.82442e-65
2.08423e-66
4.33953e-68
8.87076e-70
1.78095e-71
3.51291e-73
6.80997e-75
1.29786e-76
2.43245e-78
4.4846e-80
8.13567e-82
1.45268e-83
2.55371e-85
4.42089e-87
7.53866e-89
1.26657e-90
2.09709e-92
3.42263e-94
5.50745e-96
8.73944e-98
1.36789e-99
2.11222e-101
3.21836e-103
4.83973e-105
7.18422e-107
1.05291e-108
1.5238e-110
2.17804e-112
3.07526e-114
4.28987e-116
5.9132e-118
8.05534e-120
1.08466e-121
1.44384e-123
1.90029e-125
2.4732e-127
3.18343e-129
4.0531e-131
5.10496e-133
6.3616e-135
7.84448e-137
9.57279e-139
1.15622e-140
1.38237e-142
1.63621e-144
1.91748e-146
2.22511e-148
2.55708e-150
2.91043e-152
3.28121e-154
3.66455e-156
4.0547e-158
4.4452e-160
4.82903e-162
5.19883e-164
5.54711e-166
5.86657e-168
6.15028e-170
6.39202e-172
6.58643e-174
6.72927e-176
6.81751e-178
6.84952e-180
6.82503e-182
6.74517e-184
6.6124e-186
6.43036e-188
6.20374e-190
5.93807e-192
5.63952e-194
5.31464e-196
4.97016e-198
4.61277e-200
4.2489e-202
3.88458e-204
3.52526e-206
3.17575e-208
2.84011e-210
2.52166e-212
2.22294e-214
1.94572e-216
1.69111e-218
1.45959e-220
1.25106e-222
1.06497e-224
9.00399e-227
7.56126e-229
6.30722e-231
5.22624e-233
4.302e-235
3.51807e-237
2.85834e-239
2.30738e-241
1.85072e-243
1.47503e-245
1.16821e-247
9.19436e-250
7.19153e-252
5.59038e-254
4.31918e-256
3.3168e-258
2.53173e-260
1.92093e-262
1.44884e-264
1.08633e-266
8.09765e-269
6.00102e-271
4.42159e-273
3.2392e-275
2.35949e-277
1.70899e-279
1.23088e-281
8.81588e-284
6.27921e-286
4.44784e-288
3.13339e-290
2.19542e-292
1.52994e-294
1.06047e-296
7.31147e-299
5.01431e-301
3.42082e-303
2.32154e-305
1.56735e-307
1.05272e-309
7.03446e-312
4.67664e-314
3.09339e-316
2.03582e-318
1.33002e-320
6.42285e-323
0
0
0
0
0
0
0
0
0
0
0
0
0
0
0
0
0
0
0
0
0
0
0
0
0
0
0
0
0
0
0
0
0
0
0
0
0
0
0
0
0
0
0
0
0
0
0
0
0
0
0
0
0
0
0
0
0
0
0
0
0
0
0
0
0
0
0
0
0
0
0
0
0
0
0
0
0
0
0
0
0
0
0
0
0
0
0
0
0
0
0
0
0
0
0
0
0
0
0
0
0
0
0
0
0
0
0
0
0
0
0
0
0
0
0
0
0
0
0
0
0
0
0
0
0
0
0
0
0
0
0
0
0
0
0
0
0
0
0
0
0
0
0
0
0
0
0
0
0
0
0
0
0
0
0
0
0
0
0
0
0
0
0
0
0
0
0
0
0
0
0
0
0
0
0
0
0
0
0
0
0
0
0
0
0
0
0
0
0
0
0
0
0
0
0
0
0
0
0
0
0
0
0
0
0
0
0
0
0
0
0
0
0
0
0
0
0
0
0
0
0
0
0
0
0
0
0
0
0
0
0
0
0
0
0
0
0
0
0
0
0
0
0
0
0
0
0
0
0
0
0
0
0
0
0
0
0
0
0
0
0
0
0
0
0
0
0
0
0
0
)
;

boundaryField
{
    sides
    {
        type            zeroGradient;
    }
    empty
    {
        type            empty;
    }
}


// ************************************************************************* //
