/*--------------------------------*- C++ -*----------------------------------*\
| =========                 |                                                 |
| \\      /  F ield         | OpenFOAM: The Open Source CFD Toolbox           |
|  \\    /   O peration     | Version:  2312                                  |
|   \\  /    A nd           | Website:  www.openfoam.com                      |
|    \\/     M anipulation  |                                                 |
\*---------------------------------------------------------------------------*/
FoamFile
{
    version     2.0;
    format      ascii;
    arch        "LSB;label=32;scalar=64";
    class       volScalarField;
    location    "4.2";
    object      T;
}
// * * * * * * * * * * * * * * * * * * * * * * * * * * * * * * * * * * * * * //

dimensions      [0 0 0 1 0 0 0];

internalField   nonuniform List<scalar> 
1000
(
9.48121e-07
9.49722e-07
9.54129e-07
9.61352e-07
9.7141e-07
9.84328e-07
1.00014e-06
1.01888e-06
1.0406e-06
1.06534e-06
1.09319e-06
1.12419e-06
1.15843e-06
1.19599e-06
1.23697e-06
1.28146e-06
1.32958e-06
1.38144e-06
1.43716e-06
1.49689e-06
1.56077e-06
1.62894e-06
1.70159e-06
1.77887e-06
1.86098e-06
1.94811e-06
2.04047e-06
2.13827e-06
2.24175e-06
2.35115e-06
2.46673e-06
2.58875e-06
2.7175e-06
2.85328e-06
2.9964e-06
3.14718e-06
3.30598e-06
3.47315e-06
3.64908e-06
3.83415e-06
4.02879e-06
4.23342e-06
4.4485e-06
4.67452e-06
4.91196e-06
5.16135e-06
5.42322e-06
5.69816e-06
5.98675e-06
6.28961e-06
6.60739e-06
6.94077e-06
7.29044e-06
7.65716e-06
8.04168e-06
8.44481e-06
8.86738e-06
9.31027e-06
9.77438e-06
1.02607e-05
1.07701e-05
1.13037e-05
1.18626e-05
1.24479e-05
1.30607e-05
1.37022e-05
1.43738e-05
1.50766e-05
1.58122e-05
1.65819e-05
1.73872e-05
1.82296e-05
1.91107e-05
2.00322e-05
2.09959e-05
2.20035e-05
2.30569e-05
2.41581e-05
2.5309e-05
2.65118e-05
2.77687e-05
2.90819e-05
3.04538e-05
3.18869e-05
3.33836e-05
3.49467e-05
3.65788e-05
3.82829e-05
4.00618e-05
4.19187e-05
4.38567e-05
4.58791e-05
4.79894e-05
5.01911e-05
5.24878e-05
5.48834e-05
5.73819e-05
5.99874e-05
6.27041e-05
6.55364e-05
6.84889e-05
7.15663e-05
7.47735e-05
7.81156e-05
8.15979e-05
8.52258e-05
8.90049e-05
9.29411e-05
9.70403e-05
0.000101309
0.000105753
0.00011038
0.000115197
0.000120209
0.000125426
0.000130855
0.000136503
0.000142378
0.00014849
0.000154847
0.000161457
0.000168331
0.000175477
0.000182907
0.000190629
0.000198655
0.000206995
0.000215661
0.000224665
0.000234018
0.000243733
0.000253822
0.0002643
0.000275179
0.000286473
0.000298197
0.000310366
0.000322995
0.0003361
0.000349698
0.000363804
0.000378437
0.000393614
0.000409354
0.000425675
0.000442597
0.000460139
0.000478323
0.00049717
0.000516701
0.000536939
0.000557907
0.000579628
0.000602127
0.000625429
0.00064956
0.000674546
0.000700414
0.000727193
0.00075491
0.000783596
0.00081328
0.000843993
0.000875769
0.000908638
0.000942635
0.000977794
0.00101415
0.00105174
0.0010906
0.00113077
0.00117229
0.00121519
0.00125953
0.00130533
0.00135265
0.00140153
0.00145201
0.00150414
0.00155797
0.00161354
0.00167091
0.00173012
0.00179123
0.00185429
0.00191936
0.00198648
0.00205573
0.00212714
0.0022008
0.00227675
0.00235505
0.00243578
0.00251899
0.00260475
0.00269313
0.0027842
0.00287802
0.00297468
0.00307423
0.00317677
0.00328235
0.00339107
0.00350299
0.00361821
0.00373679
0.00385883
0.00398442
0.00411363
0.00424655
0.00438328
0.00452391
0.00466853
0.00481724
0.00497012
0.00512729
0.00528884
0.00545486
0.00562548
0.00580078
0.00598088
0.00616588
0.00635589
0.00655103
0.00675142
0.00695715
0.00716835
0.00738515
0.00760765
0.00783599
0.00807028
0.00831065
0.00855722
0.00881013
0.00906951
0.00933549
0.00960819
0.00988777
0.0101743
0.0104681
0.0107691
0.0110775
0.0113935
0.0117172
0.0120488
0.0123883
0.0127361
0.0130921
0.0134566
0.0138297
0.0142116
0.0146024
0.0150022
0.0154114
0.0158299
0.016258
0.0166958
0.0171435
0.0176012
0.0180692
0.0185476
0.0190365
0.0195361
0.0200467
0.0205683
0.0211011
0.0216454
0.0222012
0.0227688
0.0233483
0.0239399
0.0245438
0.0251601
0.0257891
0.0264308
0.0270856
0.0277535
0.0284347
0.0291294
0.0298378
0.0305601
0.0312964
0.0320469
0.0328118
0.0335912
0.0343853
0.0351943
0.0360184
0.0368578
0.0377125
0.0385828
0.0394688
0.0403707
0.0412887
0.0422229
0.0431735
0.0441407
0.0451245
0.0461252
0.0471429
0.0481777
0.0492298
0.0502994
0.0513866
0.0524915
0.0536142
0.054755
0.0559138
0.057091
0.0582865
0.0595005
0.0607331
0.0619844
0.0632546
0.0645437
0.0658519
0.0671792
0.0685257
0.0698916
0.0712769
0.0726816
0.0741059
0.0755499
0.0770135
0.0784969
0.08
0.0815231
0.083066
0.0846289
0.0862117
0.0878145
0.0894373
0.0910802
0.092743
0.0944259
0.0961288
0.0978517
0.0995947
0.101358
0.10314
0.104943
0.106765
0.108608
0.11047
0.112351
0.114253
0.116173
0.118113
0.120073
0.122051
0.124049
0.126066
0.128101
0.130155
0.132227
0.134318
0.136427
0.138554
0.140699
0.142862
0.145042
0.147239
0.149453
0.151684
0.153932
0.156195
0.158475
0.160771
0.163082
0.165408
0.167749
0.170105
0.172475
0.174859
0.177257
0.179668
0.182092
0.184529
0.186978
0.189439
0.191912
0.194395
0.19689
0.199395
0.201909
0.204433
0.206967
0.209509
0.212059
0.214617
0.217182
0.219754
0.222332
0.224916
0.227505
0.2301
0.232698
0.235301
0.237907
0.240515
0.243126
0.245738
0.248352
0.250966
0.253581
0.256194
0.258807
0.261418
0.264027
0.266632
0.269235
0.271833
0.274427
0.277016
0.279598
0.282174
0.284744
0.287305
0.289858
0.292402
0.294937
0.297461
0.299975
0.302477
0.304967
0.307444
0.309908
0.312358
0.314793
0.317212
0.319616
0.322004
0.324374
0.326726
0.32906
0.331374
0.333669
0.335943
0.338197
0.340428
0.342638
0.344824
0.346987
0.349126
0.351241
0.353329
0.355392
0.357429
0.359438
0.361419
0.363373
0.365297
0.367192
0.369057
0.370891
0.372694
0.374466
0.376206
0.377912
0.379586
0.381226
0.382832
0.384403
0.385939
0.387439
0.388903
0.39033
0.391721
0.393074
0.394389
0.395666
0.396905
0.398104
0.399264
0.400384
0.401464
0.402504
0.403502
0.40446
0.405376
0.406251
0.407083
0.407873
0.408621
0.409326
0.409988
0.410607
0.411183
0.411715
0.412203
0.412647
0.413047
0.413404
0.413715
0.413983
0.414206
0.414385
0.414519
0.414608
0.414653
0.414653
0.414608
0.414519
0.414385
0.414206
0.413983
0.413715
0.413404
0.413047
0.412647
0.412203
0.411715
0.411183
0.410607
0.409988
0.409326
0.408621
0.407873
0.407083
0.406251
0.405376
0.40446
0.403502
0.402504
0.401464
0.400384
0.399264
0.398104
0.396905
0.395666
0.394389
0.393074
0.391721
0.39033
0.388903
0.387439
0.385939
0.384403
0.382832
0.381226
0.379586
0.377912
0.376206
0.374466
0.372694
0.370891
0.369057
0.367192
0.365297
0.363373
0.361419
0.359438
0.357429
0.355392
0.353329
0.351241
0.349126
0.346987
0.344824
0.342638
0.340428
0.338197
0.335943
0.333669
0.331374
0.32906
0.326726
0.324374
0.322004
0.319616
0.317212
0.314793
0.312358
0.309908
0.307444
0.304967
0.302477
0.299975
0.297461
0.294937
0.292402
0.289858
0.287305
0.284744
0.282174
0.279598
0.277016
0.274427
0.271833
0.269235
0.266632
0.264027
0.261418
0.258807
0.256194
0.253581
0.250966
0.248352
0.245738
0.243126
0.240515
0.237907
0.235301
0.232698
0.2301
0.227505
0.224916
0.222332
0.219754
0.217182
0.214617
0.212059
0.209509
0.206967
0.204433
0.201909
0.199395
0.19689
0.194395
0.191912
0.189439
0.186978
0.184529
0.182092
0.179668
0.177257
0.174859
0.172475
0.170105
0.167749
0.165408
0.163082
0.160771
0.158475
0.156195
0.153932
0.151684
0.149453
0.147239
0.145042
0.142862
0.140699
0.138554
0.136427
0.134318
0.132227
0.130155
0.128101
0.126066
0.124049
0.122051
0.120073
0.118113
0.116173
0.114253
0.112351
0.11047
0.108608
0.106765
0.104943
0.10314
0.101358
0.0995947
0.0978517
0.0961288
0.0944259
0.092743
0.0910802
0.0894373
0.0878145
0.0862117
0.0846289
0.083066
0.0815231
0.08
0.0784969
0.0770135
0.0755499
0.0741059
0.0726816
0.0712769
0.0698916
0.0685257
0.0671792
0.0658519
0.0645437
0.0632546
0.0619844
0.0607331
0.0595005
0.0582865
0.057091
0.0559138
0.054755
0.0536142
0.0524915
0.0513866
0.0502994
0.0492298
0.0481777
0.0471429
0.0461252
0.0451245
0.0441407
0.0431735
0.0422229
0.0412887
0.0403707
0.0394688
0.0385828
0.0377125
0.0368578
0.0360184
0.0351943
0.0343853
0.0335912
0.0328118
0.0320469
0.0312964
0.0305601
0.0298378
0.0291294
0.0284347
0.0277535
0.0270856
0.0264308
0.0257891
0.0251601
0.0245438
0.0239399
0.0233483
0.0227688
0.0222012
0.0216454
0.0211011
0.0205683
0.0200467
0.0195361
0.0190365
0.0185476
0.0180692
0.0176012
0.0171435
0.0166958
0.016258
0.0158299
0.0154114
0.0150022
0.0146024
0.0142116
0.0138297
0.0134566
0.0130921
0.0127361
0.0123883
0.0120488
0.0117172
0.0113935
0.0110775
0.0107691
0.0104681
0.0101743
0.00988777
0.00960819
0.00933549
0.00906951
0.00881013
0.00855722
0.00831065
0.00807028
0.00783599
0.00760765
0.00738515
0.00716835
0.00695715
0.00675142
0.00655103
0.00635589
0.00616588
0.00598088
0.00580078
0.00562548
0.00545486
0.00528884
0.00512729
0.00497012
0.00481724
0.00466853
0.00452391
0.00438328
0.00424655
0.00411363
0.00398442
0.00385883
0.00373679
0.00361821
0.00350299
0.00339107
0.00328235
0.00317677
0.00307423
0.00297468
0.00287802
0.0027842
0.00269313
0.00260475
0.00251899
0.00243578
0.00235505
0.00227675
0.0022008
0.00212714
0.00205573
0.00198648
0.00191936
0.00185429
0.00179123
0.00173012
0.00167091
0.00161354
0.00155797
0.00150414
0.00145201
0.00140153
0.00135265
0.00130533
0.00125953
0.00121519
0.00117229
0.00113077
0.0010906
0.00105174
0.00101415
0.000977794
0.000942635
0.000908638
0.000875769
0.000843993
0.00081328
0.000783596
0.00075491
0.000727193
0.000700414
0.000674546
0.00064956
0.000625429
0.000602127
0.000579628
0.000557907
0.000536939
0.000516701
0.00049717
0.000478323
0.000460139
0.000442597
0.000425675
0.000409354
0.000393614
0.000378437
0.000363804
0.000349698
0.0003361
0.000322995
0.000310366
0.000298197
0.000286473
0.000275179
0.0002643
0.000253822
0.000243733
0.000234018
0.000224665
0.000215661
0.000206995
0.000198655
0.000190629
0.000182907
0.000175477
0.000168331
0.000161457
0.000154847
0.00014849
0.000142378
0.000136503
0.000130855
0.000125426
0.000120209
0.000115197
0.00011038
0.000105753
0.000101309
9.70403e-05
9.29411e-05
8.90049e-05
8.52258e-05
8.15979e-05
7.81156e-05
7.47735e-05
7.15663e-05
6.84889e-05
6.55364e-05
6.27041e-05
5.99874e-05
5.73819e-05
5.48834e-05
5.24878e-05
5.01911e-05
4.79894e-05
4.58791e-05
4.38567e-05
4.19187e-05
4.00618e-05
3.82829e-05
3.65788e-05
3.49467e-05
3.33836e-05
3.18869e-05
3.04538e-05
2.90819e-05
2.77687e-05
2.65118e-05
2.5309e-05
2.41581e-05
2.30569e-05
2.20035e-05
2.09959e-05
2.00322e-05
1.91107e-05
1.82296e-05
1.73872e-05
1.65819e-05
1.58122e-05
1.50766e-05
1.43738e-05
1.37022e-05
1.30607e-05
1.24479e-05
1.18626e-05
1.13037e-05
1.07701e-05
1.02607e-05
9.77438e-06
9.31027e-06
8.86738e-06
8.44481e-06
8.04168e-06
7.65716e-06
7.29044e-06
6.94077e-06
6.60739e-06
6.28961e-06
5.98675e-06
5.69816e-06
5.42322e-06
5.16135e-06
4.91196e-06
4.67452e-06
4.4485e-06
4.23342e-06
4.02879e-06
3.83415e-06
3.64908e-06
3.47315e-06
3.30598e-06
3.14718e-06
2.9964e-06
2.85328e-06
2.7175e-06
2.58875e-06
2.46673e-06
2.35115e-06
2.24175e-06
2.13827e-06
2.04047e-06
1.94811e-06
1.86098e-06
1.77887e-06
1.70159e-06
1.62894e-06
1.56077e-06
1.49689e-06
1.43716e-06
1.38144e-06
1.32958e-06
1.28146e-06
1.23697e-06
1.19599e-06
1.15843e-06
1.12419e-06
1.09319e-06
1.06534e-06
1.0406e-06
1.01888e-06
1.00014e-06
9.84328e-07
9.7141e-07
9.61352e-07
9.54129e-07
9.49722e-07
9.48121e-07
)
;

boundaryField
{
    sides
    {
        type            zeroGradient;
    }
    empty
    {
        type            empty;
    }
}


// ************************************************************************* //
