/*--------------------------------*- C++ -*----------------------------------*\
| =========                 |                                                 |
| \\      /  F ield         | OpenFOAM: The Open Source CFD Toolbox           |
|  \\    /   O peration     | Version:  2312                                  |
|   \\  /    A nd           | Website:  www.openfoam.com                      |
|    \\/     M anipulation  |                                                 |
\*---------------------------------------------------------------------------*/
FoamFile
{
    version     2.0;
    format      ascii;
    arch        "LSB;label=32;scalar=64";
    class       volScalarField;
    location    "3.5";
    object      T;
}
// * * * * * * * * * * * * * * * * * * * * * * * * * * * * * * * * * * * * * //

dimensions      [0 0 0 1 0 0 0];

internalField   nonuniform List<scalar> 
1000
(
7.97032e-08
7.98955e-08
8.0425e-08
8.12936e-08
8.25046e-08
8.40624e-08
8.59726e-08
8.82423e-08
9.08797e-08
9.38945e-08
9.72976e-08
1.01101e-07
1.0532e-07
1.09968e-07
1.15062e-07
1.20622e-07
1.26666e-07
1.33216e-07
1.40297e-07
1.47933e-07
1.56151e-07
1.6498e-07
1.74452e-07
1.84599e-07
1.95458e-07
2.07066e-07
2.19463e-07
2.32693e-07
2.46801e-07
2.61836e-07
2.77848e-07
2.94893e-07
3.13028e-07
3.32315e-07
3.52818e-07
3.74607e-07
3.97752e-07
4.22332e-07
4.48428e-07
4.76125e-07
5.05513e-07
5.36689e-07
5.69753e-07
6.04813e-07
6.41979e-07
6.81372e-07
7.23116e-07
7.67343e-07
8.14193e-07
8.63811e-07
9.16352e-07
9.71979e-07
1.03086e-06
1.09319e-06
1.15914e-06
1.22891e-06
1.30273e-06
1.38081e-06
1.46338e-06
1.55069e-06
1.64299e-06
1.74057e-06
1.84369e-06
1.95267e-06
2.06782e-06
2.18947e-06
2.31797e-06
2.45368e-06
2.59699e-06
2.7483e-06
2.90803e-06
3.07664e-06
3.25458e-06
3.44235e-06
3.64045e-06
3.84944e-06
4.06988e-06
4.30236e-06
4.5475e-06
4.80595e-06
5.07841e-06
5.36558e-06
5.66822e-06
5.98712e-06
6.32311e-06
6.67704e-06
7.04982e-06
7.4424e-06
7.85578e-06
8.291e-06
8.74913e-06
9.23132e-06
9.73877e-06
1.02727e-05
1.08345e-05
1.14254e-05
1.20469e-05
1.27004e-05
1.33877e-05
1.41102e-05
1.48696e-05
1.56678e-05
1.65066e-05
1.7388e-05
1.83139e-05
1.92865e-05
2.0308e-05
2.13807e-05
2.25071e-05
2.36895e-05
2.49307e-05
2.62333e-05
2.76002e-05
2.90345e-05
3.05391e-05
3.21173e-05
3.37726e-05
3.55083e-05
3.73281e-05
3.92359e-05
4.12356e-05
4.33313e-05
4.55274e-05
4.78283e-05
5.02387e-05
5.27634e-05
5.54075e-05
5.81761e-05
6.10749e-05
6.41094e-05
6.72855e-05
7.06095e-05
7.40876e-05
7.77265e-05
8.15331e-05
8.55146e-05
8.96783e-05
9.40321e-05
9.85839e-05
0.000103342
0.000108315
0.000113512
0.000118943
0.000124616
0.000130542
0.000136732
0.000143196
0.000149945
0.00015699
0.000164345
0.000172021
0.000180032
0.00018839
0.000197109
0.000206204
0.000215689
0.000225581
0.000235894
0.000246645
0.000257852
0.000269532
0.000281702
0.000294383
0.000307592
0.000321351
0.000335681
0.000350602
0.000366137
0.000382308
0.000399141
0.000416658
0.000434886
0.000453849
0.000473576
0.000494094
0.000515432
0.000537618
0.000560685
0.000584662
0.000609582
0.00063548
0.000662388
0.000690343
0.000719382
0.000749541
0.000780859
0.000813377
0.000847135
0.000882176
0.000918543
0.00095628
0.000995435
0.00103605
0.00107819
0.00112188
0.00116719
0.00121416
0.00126286
0.00131333
0.00136564
0.00141984
0.001476
0.00153417
0.00159442
0.00165681
0.00172142
0.0017883
0.00185754
0.00192919
0.00200335
0.00208007
0.00215945
0.00224155
0.00232647
0.00241427
0.00250506
0.00259892
0.00269593
0.00279619
0.00289979
0.00300683
0.00311741
0.00323161
0.00334956
0.00347135
0.00359709
0.00372688
0.00386084
0.00399909
0.00414173
0.00428889
0.00444069
0.00459725
0.00475869
0.00492515
0.00509675
0.00527363
0.00545593
0.00564377
0.0058373
0.00603667
0.00624202
0.0064535
0.00667126
0.00689544
0.00712622
0.00736374
0.00760817
0.00785967
0.0081184
0.00838455
0.00865826
0.00893973
0.00922913
0.00952663
0.00983242
0.0101467
0.0104696
0.0108014
0.0111422
0.0114922
0.0118517
0.0122208
0.0125997
0.0129886
0.0133878
0.0137974
0.0142177
0.0146489
0.0150911
0.0155447
0.0160097
0.0164865
0.0169753
0.0174762
0.0179896
0.0185155
0.0190544
0.0196063
0.0201716
0.0207505
0.0213431
0.0219498
0.0225708
0.0232062
0.0238565
0.0245217
0.0252021
0.0258981
0.0266097
0.0273373
0.0280811
0.0288414
0.0296184
0.0304123
0.0312234
0.0320519
0.0328981
0.0337622
0.0346444
0.0355451
0.0364643
0.0374025
0.0383598
0.0393364
0.0403326
0.0413486
0.0423847
0.043441
0.0445179
0.0456154
0.046734
0.0478737
0.0490348
0.0502174
0.0514219
0.0526485
0.0538972
0.0551683
0.0564621
0.0577787
0.0591182
0.060481
0.0618671
0.0632767
0.06471
0.0661671
0.0676482
0.0691535
0.0706831
0.0722371
0.0738157
0.075419
0.0770471
0.0787001
0.0803781
0.0820812
0.0838096
0.0855632
0.0873421
0.0891465
0.0909764
0.0928318
0.0947127
0.0966192
0.0985513
0.100509
0.102492
0.104501
0.106536
0.108596
0.110681
0.112792
0.114929
0.117091
0.119278
0.12149
0.123727
0.125989
0.128276
0.130587
0.132923
0.135283
0.137668
0.140076
0.142508
0.144964
0.147443
0.149945
0.15247
0.155017
0.157586
0.160178
0.162791
0.165426
0.168081
0.170757
0.173454
0.17617
0.178906
0.181661
0.184435
0.187227
0.190037
0.192864
0.195708
0.198569
0.201445
0.204337
0.207244
0.210166
0.213101
0.216049
0.21901
0.221984
0.224968
0.227964
0.23097
0.233986
0.237011
0.240044
0.243084
0.246132
0.249186
0.252246
0.25531
0.258379
0.261451
0.264526
0.267603
0.270681
0.27376
0.276838
0.279915
0.28299
0.286062
0.289131
0.292195
0.295254
0.298307
0.301353
0.304392
0.307422
0.310442
0.313452
0.316451
0.319438
0.322412
0.325373
0.328318
0.331248
0.334162
0.337059
0.339937
0.342796
0.345635
0.348453
0.35125
0.354024
0.356775
0.359501
0.362202
0.364876
0.367524
0.370144
0.372735
0.375297
0.377828
0.380328
0.382796
0.385231
0.387632
0.389999
0.39233
0.394625
0.396883
0.399103
0.401285
0.403428
0.40553
0.407592
0.409612
0.41159
0.413525
0.415416
0.417263
0.419065
0.420822
0.422532
0.424195
0.425811
0.427379
0.428899
0.430369
0.431789
0.433159
0.434479
0.435747
0.436963
0.438128
0.439239
0.440298
0.441303
0.442255
0.443153
0.443996
0.444784
0.445517
0.446195
0.446817
0.447384
0.447894
0.448349
0.448746
0.449088
0.449372
0.4496
0.449771
0.449885
0.449942
0.449942
0.449885
0.449771
0.4496
0.449372
0.449088
0.448746
0.448349
0.447894
0.447384
0.446817
0.446195
0.445517
0.444784
0.443996
0.443153
0.442255
0.441303
0.440298
0.439239
0.438128
0.436963
0.435747
0.434479
0.433159
0.431789
0.430369
0.428899
0.427379
0.425811
0.424195
0.422532
0.420822
0.419065
0.417263
0.415416
0.413525
0.41159
0.409612
0.407592
0.40553
0.403428
0.401285
0.399103
0.396883
0.394625
0.39233
0.389999
0.387632
0.385231
0.382796
0.380328
0.377828
0.375297
0.372735
0.370144
0.367524
0.364876
0.362202
0.359501
0.356775
0.354024
0.35125
0.348453
0.345635
0.342796
0.339937
0.337059
0.334162
0.331248
0.328318
0.325373
0.322412
0.319438
0.316451
0.313452
0.310442
0.307422
0.304392
0.301353
0.298307
0.295254
0.292195
0.289131
0.286062
0.28299
0.279915
0.276838
0.27376
0.270681
0.267603
0.264526
0.261451
0.258379
0.25531
0.252246
0.249186
0.246132
0.243084
0.240044
0.237011
0.233986
0.23097
0.227964
0.224968
0.221984
0.21901
0.216049
0.213101
0.210166
0.207244
0.204337
0.201445
0.198569
0.195708
0.192864
0.190037
0.187227
0.184435
0.181661
0.178906
0.17617
0.173454
0.170757
0.168081
0.165426
0.162791
0.160178
0.157586
0.155017
0.15247
0.149945
0.147443
0.144964
0.142508
0.140076
0.137668
0.135283
0.132923
0.130587
0.128276
0.125989
0.123727
0.12149
0.119278
0.117091
0.114929
0.112792
0.110681
0.108596
0.106536
0.104501
0.102492
0.100509
0.0985513
0.0966192
0.0947127
0.0928318
0.0909764
0.0891465
0.0873421
0.0855632
0.0838096
0.0820812
0.0803781
0.0787001
0.0770471
0.075419
0.0738157
0.0722371
0.0706831
0.0691535
0.0676482
0.0661671
0.06471
0.0632767
0.0618671
0.060481
0.0591182
0.0577787
0.0564621
0.0551683
0.0538972
0.0526485
0.0514219
0.0502174
0.0490348
0.0478737
0.046734
0.0456154
0.0445179
0.043441
0.0423847
0.0413486
0.0403326
0.0393364
0.0383598
0.0374025
0.0364643
0.0355451
0.0346444
0.0337622
0.0328981
0.0320519
0.0312234
0.0304123
0.0296184
0.0288414
0.0280811
0.0273373
0.0266097
0.0258981
0.0252021
0.0245217
0.0238565
0.0232062
0.0225708
0.0219498
0.0213431
0.0207505
0.0201716
0.0196063
0.0190544
0.0185155
0.0179896
0.0174762
0.0169753
0.0164865
0.0160097
0.0155447
0.0150911
0.0146489
0.0142177
0.0137974
0.0133878
0.0129886
0.0125997
0.0122208
0.0118517
0.0114922
0.0111422
0.0108014
0.0104696
0.0101467
0.00983242
0.00952663
0.00922913
0.00893973
0.00865826
0.00838455
0.0081184
0.00785967
0.00760817
0.00736374
0.00712622
0.00689544
0.00667126
0.0064535
0.00624202
0.00603667
0.0058373
0.00564377
0.00545593
0.00527363
0.00509675
0.00492515
0.00475869
0.00459725
0.00444069
0.00428889
0.00414173
0.00399909
0.00386084
0.00372688
0.00359709
0.00347135
0.00334956
0.00323161
0.00311741
0.00300683
0.00289979
0.00279619
0.00269593
0.00259892
0.00250506
0.00241427
0.00232647
0.00224155
0.00215945
0.00208007
0.00200335
0.00192919
0.00185754
0.0017883
0.00172142
0.00165681
0.00159442
0.00153417
0.001476
0.00141984
0.00136564
0.00131333
0.00126286
0.00121416
0.00116719
0.00112188
0.00107819
0.00103605
0.000995435
0.00095628
0.000918543
0.000882176
0.000847135
0.000813377
0.000780859
0.000749541
0.000719382
0.000690343
0.000662388
0.00063548
0.000609582
0.000584662
0.000560685
0.000537618
0.000515432
0.000494094
0.000473576
0.000453849
0.000434886
0.000416658
0.000399141
0.000382308
0.000366137
0.000350602
0.000335681
0.000321351
0.000307592
0.000294383
0.000281702
0.000269532
0.000257852
0.000246645
0.000235894
0.000225581
0.000215689
0.000206204
0.000197109
0.00018839
0.000180032
0.000172021
0.000164345
0.00015699
0.000149945
0.000143196
0.000136732
0.000130542
0.000124616
0.000118943
0.000113512
0.000108315
0.000103342
9.85839e-05
9.40321e-05
8.96783e-05
8.55146e-05
8.15331e-05
7.77265e-05
7.40876e-05
7.06095e-05
6.72855e-05
6.41094e-05
6.10749e-05
5.81761e-05
5.54075e-05
5.27634e-05
5.02387e-05
4.78283e-05
4.55274e-05
4.33313e-05
4.12356e-05
3.92359e-05
3.73281e-05
3.55083e-05
3.37726e-05
3.21173e-05
3.05391e-05
2.90345e-05
2.76002e-05
2.62333e-05
2.49307e-05
2.36895e-05
2.25071e-05
2.13807e-05
2.0308e-05
1.92865e-05
1.83139e-05
1.7388e-05
1.65066e-05
1.56678e-05
1.48696e-05
1.41102e-05
1.33877e-05
1.27004e-05
1.20469e-05
1.14254e-05
1.08345e-05
1.02727e-05
9.73877e-06
9.23132e-06
8.74913e-06
8.291e-06
7.85578e-06
7.4424e-06
7.04982e-06
6.67704e-06
6.32311e-06
5.98712e-06
5.66822e-06
5.36558e-06
5.07841e-06
4.80595e-06
4.5475e-06
4.30236e-06
4.06988e-06
3.84944e-06
3.64045e-06
3.44235e-06
3.25458e-06
3.07664e-06
2.90803e-06
2.7483e-06
2.59699e-06
2.45368e-06
2.31797e-06
2.18947e-06
2.06782e-06
1.95267e-06
1.84369e-06
1.74057e-06
1.64299e-06
1.55069e-06
1.46338e-06
1.38081e-06
1.30273e-06
1.22891e-06
1.15914e-06
1.09319e-06
1.03086e-06
9.71979e-07
9.16352e-07
8.63811e-07
8.14193e-07
7.67343e-07
7.23116e-07
6.81372e-07
6.41979e-07
6.04813e-07
5.69753e-07
5.36689e-07
5.05513e-07
4.76125e-07
4.48428e-07
4.22332e-07
3.97752e-07
3.74607e-07
3.52818e-07
3.32315e-07
3.13028e-07
2.94893e-07
2.77848e-07
2.61836e-07
2.46801e-07
2.32693e-07
2.19463e-07
2.07066e-07
1.95458e-07
1.84599e-07
1.74452e-07
1.6498e-07
1.56151e-07
1.47933e-07
1.40297e-07
1.33216e-07
1.26666e-07
1.20622e-07
1.15062e-07
1.09968e-07
1.0532e-07
1.01101e-07
9.72976e-08
9.38945e-08
9.08797e-08
8.82423e-08
8.59726e-08
8.40624e-08
8.25046e-08
8.12936e-08
8.0425e-08
7.98955e-08
7.97032e-08
)
;

boundaryField
{
    sides
    {
        type            zeroGradient;
    }
    empty
    {
        type            empty;
    }
}


// ************************************************************************* //
