/*--------------------------------*- C++ -*----------------------------------*\
| =========                 |                                                 |
| \\      /  F ield         | OpenFOAM: The Open Source CFD Toolbox           |
|  \\    /   O peration     | Version:  2312                                  |
|   \\  /    A nd           | Website:  www.openfoam.com                      |
|    \\/     M anipulation  |                                                 |
\*---------------------------------------------------------------------------*/
FoamFile
{
    version     2.0;
    format      ascii;
    arch        "LSB;label=32;scalar=64";
    class       volScalarField;
    location    "3.4";
    object      T;
}
// * * * * * * * * * * * * * * * * * * * * * * * * * * * * * * * * * * * * * //

dimensions      [0 0 0 1 0 0 0];

internalField   nonuniform List<scalar> 
1000
(
0
0
0
0
0
0
0
0
0
0
0
0
0
0
0
0
0
0
0
0
0
0
0
0
0
0
0
0
0
0
0
0
0
0
0
0
0
0
0
0
0
0
0
0
0
0
0
0
0
0
0
0
0
0
0
0
0
0
0
0
0
0
0
0
0
0
0
0
0
0
0
0
0
0
0
0
0
0
0
0
0
0
0
0
0
0
0
0
0
0
0
0
0
0
0
0
0
0
0
0
0
0
0
0
0
0
0
0
0
0
0
0
0
0
0
0
0
0
0
0
0
0
0
0
0
0
0
0
0
0
0
0
0
0
0
0
0
0
0
0
0
0
0
0
0
0
0
0
0
0
0
0
0
0
0
0
0
0
0
0
0
0
0
0
0
0
0
0
0
0
0
0
0
0
0
0
0
0
0
0
0
0
0
0
0
0
0
0
0
0
0
0
0
0
0
0
0
0
0
0
0
0
0
0
0
0
0
0
0
0
0
0
0
0
0
0
0
0
0
0
0
0
0
0
0
0
0
0
0
0
0
0
0
0
0
0
0
0
0
0
0
0
0
0
0
0
0
0
0
0
0
0
0
0
0
0
0
0
0
0
0
0
0
0
0
0
0
0
0
0
0
0
0
0
0
0
0
0
0
0
0
0
0
0
0
0
0
0
0
0
0
0
0
0
0
0
0
0
0
0
0
0
0
0
0
0
0
0
0
0
0
0
0
0
0
0
0
0
0
0
0
0
0
0
0
0
0
0
0
0
0
0
0
0
0
0
0
0
0
0
0
0
0
0
0
0
0
0
0
0
0
0
0
0
0
0
0
0
0
0
0
0
0
0
0
0
0
0
0
0
0
0
0
0
0
0
0
0
0
0
0
0
0
0
0
0
0
0
0
0
0
0
0
0
0
0
0
0
0
0
0
0
0
0
0
0
0
0
0
0
0
0
0
0
0
0
0
0
0
0
0
0
0
0
0
0
0
0
0
0
0
0
0
0
0
0
0
0
0
0
0
0
0
0
0
0
0
0
0
0
8.1552e-98
1.77264e-95
1.92714e-93
1.39718e-91
7.5995e-90
3.30785e-88
1.20022e-86
3.73391e-85
1.01674e-83
2.46174e-82
5.36602e-81
1.06367e-79
1.93333e-78
3.24474e-77
5.05832e-76
7.36217e-75
1.00488e-73
1.2913e-72
1.56766e-71
1.80358e-70
1.97186e-69
2.05384e-68
2.04263e-67
1.94376e-66
1.77317e-65
1.55333e-64
1.30883e-63
1.0623e-62
8.31679e-62
6.28869e-61
4.5981e-60
3.25457e-59
2.23232e-58
1.48523e-57
9.59409e-57
6.02228e-56
3.67639e-55
2.18434e-54
1.26408e-53
7.12994e-53
3.92228e-52
2.10575e-51
1.10394e-50
5.65463e-50
2.8315e-49
1.38678e-48
6.64646e-48
3.11869e-47
1.43334e-46
6.4552e-46
2.84993e-45
1.23395e-44
5.24164e-44
2.18526e-43
8.94458e-43
3.59573e-42
1.42013e-41
5.51214e-41
2.10329e-40
7.89215e-40
2.91293e-39
1.05786e-38
3.78096e-38
1.33036e-37
4.6093e-37
1.57293e-36
5.28801e-36
1.7518e-35
5.71986e-35
1.84114e-34
5.84357e-34
1.82916e-33
5.64798e-33
1.72062e-32
5.17261e-32
1.53478e-31
4.49545e-31
1.30006e-30
3.71274e-30
1.04721e-29
2.9178e-29
8.03199e-29
2.18477e-28
5.87308e-28
1.56052e-27
4.09899e-27
1.06451e-26
2.73366e-26
6.94257e-26
1.74395e-25
4.33351e-25
1.06535e-24
2.59145e-24
6.23797e-24
1.48609e-23
3.50427e-23
8.17991e-23
1.89037e-22
4.32549e-22
9.80083e-22
2.19924e-21
4.88776e-21
1.07601e-20
2.34656e-20
5.06993e-20
1.08534e-19
2.30229e-19
4.8398e-19
1.00833e-18
2.08223e-18
4.26225e-18
8.64906e-18
1.74002e-17
3.47083e-17
6.86495e-17
1.34648e-16
2.61913e-16
5.05289e-16
9.66897e-16
1.83531e-15
3.45589e-15
6.45598e-15
1.19659e-14
2.20059e-14
4.01582e-14
7.2724e-14
1.30701e-13
2.33134e-13
4.12748e-13
7.25345e-13
1.26535e-12
2.19134e-12
3.76763e-12
6.43149e-12
1.0901e-11
1.83464e-11
3.06619e-11
5.08895e-11
8.38814e-11
1.3732e-10
2.23284e-10
3.60626e-10
5.7857e-10
9.221e-10
1.45997e-09
2.29655e-09
3.58919e-09
5.57348e-09
8.59976e-09
1.31855e-08
2.009e-08
3.04198e-08
4.57766e-08
6.84642e-08
1.01774e-07
1.50376e-07
2.20858e-07
3.22448e-07
4.67986e-07
6.75236e-07
9.686e-07
1.3814e-06
1.95883e-06
2.76182e-06
3.87198e-06
5.39795e-06
7.48342e-06
1.03172e-05
1.41461e-05
1.92903e-05
2.61629e-05
3.52934e-05
4.73567e-05
6.32068e-05
8.39189e-05
0.000110837
0.000145632
0.000190366
0.000247573
0.000320341
0.000412415
0.000528305
0.00067341
0.000854153
0.00107813
0.00135425
0.00169292
0.00210621
0.00260801
0.00321423
0.00394294
0.00481455
0.00585194
0.00708058
0.00852863
0.010227
0.0122094
0.0145121
0.0171742
0.0202371
0.0237446
0.0277422
0.0322773
0.037398
0.0431534
0.0495923
0.0567629
0.0647119
0.073484
0.0831207
0.0936597
0.105134
0.117572
0.130993
0.145413
0.160838
0.177265
0.194685
0.213078
0.232415
0.252656
0.273756
0.295656
0.318292
0.341591
0.365471
0.389846
0.414623
0.439705
0.464992
0.490383
0.515773
0.541061
0.566146
0.590929
0.615318
0.639222
0.66256
0.685256
0.70724
0.728452
0.74884
0.76836
0.786977
0.804666
0.821408
0.837194
0.852023
0.8659
0.878838
0.890855
0.901975
0.912228
0.921646
0.930265
0.938125
0.945266
0.95173
0.957561
0.962802
0.967495
0.971683
0.975407
0.978706
0.981618
0.98418
0.986426
0.988387
0.990094
0.991572
0.992849
0.993946
0.994883
0.99568
0.996353
0.996916
0.997381
0.997758
0.998056
0.998281
0.998438
0.99853
0.998557
0.998519
0.998413
0.998234
0.997974
0.997626
0.997177
0.996614
0.99592
0.995076
0.994062
0.992851
0.991417
0.989731
0.987757
0.985462
0.982806
0.979747
0.976243
0.972248
0.967716
0.962596
0.956842
0.950404
0.943235
0.935286
0.926515
0.916878
0.906339
0.894865
0.882428
0.869007
0.854587
0.839162
0.822735
0.805314
0.786922
0.767585
0.747343
0.726244
0.704344
0.681708
0.658409
0.634529
0.610154
0.585377
0.560295
0.535008
0.509617
0.484227
0.458939
0.433854
0.409071
0.384682
0.360778
0.33744
0.314744
0.29276
0.271548
0.25116
0.23164
0.213023
0.195334
0.178592
0.162806
0.147977
0.1341
0.121162
0.109145
0.0980247
0.087772
0.0783541
0.0697348
0.0618751
0.054734
0.0482695
0.0424384
0.0371976
0.0325041
0.0283158
0.0245915
0.0212915
0.0183778
0.0158141
0.0135663
0.0116023
0.00989214
0.00840821
0.00712499
0.00601912
0.00506934
0.00425638
0.00356288
0.00297328
0.00247369
0.00205179
0.00169668
0.00139877
0.00114968
0.000942091
0.000769656
0.000626889
0.00050907
0.000412154
0.000332689
0.000267743
0.000214833
0.000171866
0.000137084
0.000109017
8.64406e-05
6.83373e-05
5.38664e-05
4.23352e-05
3.31751e-05
2.5921e-05
2.0194e-05
1.56866e-05
1.215e-05
9.38347e-06
7.22598e-06
5.54853e-06
4.24825e-06
3.24338e-06
2.46913e-06
1.87435e-06
1.4188e-06
1.07093e-06
8.06065e-07
6.04999e-07
4.52811e-07
3.37956e-07
2.51529e-07
1.86682e-07
1.38168e-07
1.01979e-07
7.50597e-08
5.50942e-08
4.03282e-08
2.94388e-08
2.14309e-08
1.55588e-08
1.1265e-08
8.13399e-09
5.85736e-09
4.20656e-09
3.01289e-09
2.15215e-09
1.53321e-09
1.08935e-09
7.71933e-10
5.45555e-10
3.84545e-10
2.7034e-10
1.89552e-10
1.32559e-10
9.24593e-11
6.4322e-11
4.46311e-11
3.0888e-11
2.13214e-11
1.46799e-11
1.00812e-11
6.90536e-12
4.71791e-12
3.21517e-12
2.18552e-12
1.48184e-12
1.00219e-12
6.76088e-13
4.5495e-13
3.05376e-13
2.04465e-13
1.36559e-13
9.09785e-14
6.04619e-14
4.0082e-14
2.65061e-14
1.74853e-14
1.15063e-14
7.5533e-15
4.94627e-15
3.23118e-15
2.10568e-15
1.3689e-15
8.87774e-16
5.74366e-16
3.70709e-16
2.38693e-16
1.53323e-16
9.82524e-17
6.28128e-17
4.00613e-17
2.54904e-17
1.61811e-17
1.02475e-17
6.47457e-18
4.08123e-18
2.56661e-18
1.61035e-18
1.00803e-18
6.29545e-19
3.92264e-19
2.43856e-19
1.51249e-19
9.35966e-20
5.7788e-20
3.55983e-20
2.18794e-20
1.34172e-20
8.20934e-21
5.01163e-21
3.05264e-21
1.85524e-21
1.12501e-21
6.8069e-22
4.10938e-22
2.47539e-22
1.48783e-22
8.92288e-23
5.33955e-23
3.18826e-23
1.89956e-23
1.1293e-23
6.69915e-24
3.96543e-24
2.34219e-24
1.38044e-24
8.11859e-25
4.76444e-25
2.79006e-25
1.63039e-25
9.50698e-26
5.53188e-26
3.21206e-26
1.86114e-26
1.07611e-26
6.20907e-27
3.57507e-27
2.05416e-27
1.17782e-27
6.7394e-28
3.84825e-28
2.19283e-28
1.24696e-28
7.07629e-29
4.00744e-29
2.26485e-29
1.27739e-29
7.18991e-30
4.03869e-30
2.264e-30
1.26659e-30
7.07159e-31
3.94026e-31
2.19109e-31
1.21598e-31
6.73482e-32
3.72271e-32
2.05366e-32
1.13068e-32
6.21281e-33
3.40707e-33
1.86474e-33
1.0186e-33
5.55314e-34
3.02151e-34
1.64083e-34
)
;

boundaryField
{
    sides
    {
        type            zeroGradient;
    }
    empty
    {
        type            empty;
    }
}


// ************************************************************************* //
