/*--------------------------------*- C++ -*----------------------------------*\
| =========                 |                                                 |
| \\      /  F ield         | OpenFOAM: The Open Source CFD Toolbox           |
|  \\    /   O peration     | Version:  2312                                  |
|   \\  /    A nd           | Website:  www.openfoam.com                      |
|    \\/     M anipulation  |                                                 |
\*---------------------------------------------------------------------------*/
FoamFile
{
    version     2.0;
    format      ascii;
    arch        "LSB;label=32;scalar=64";
    class       volScalarField;
    location    "4.9";
    object      T;
}
// * * * * * * * * * * * * * * * * * * * * * * * * * * * * * * * * * * * * * //

dimensions      [0 0 0 1 0 0 0];

internalField   nonuniform List<scalar> 
1000
(
0
0
0
0
0
0
0
0
0
0
0
0
0
0
0
0
0
0
0
0
0
0
0
0
0
0
0
0
0
0
0
0
0
0
0
0
0
0
0
0
0
0
0
0
0
0
0
0
0
0
0
0
0
0
0
0
0
0
0
0
0
0
0
0
0
0
0
0
0
0
0
0
0
0
0
0
0
0
0
0
0
0
0
0
0
0
0
0
0
0
0
0
0
0
0
0
0
0
0
0
0
0
0
0
0
0
0
0
0
0
0
0
0
0
0
0
0
0
0
0
0
0
0
0
0
0
0
0
0
0
0
0
0
0
0
0
0
0
0
0
0
0
0
0
0
0
0
0
0
0
0
0
0
0
0
0
0
0
0
0
0
0
0
0
0
0
0
0
0
0
0
0
0
0
0
0
0
0
0
0
0
0
0
0
0
0
0
0
0
0
0
0
0
0
0
0
0
0
0
0
0
0
0
0
0
0
0
0
0
0
0
0
0
0
0
0
0
0
0
0
0
0
0
0
0
0
0
0
0
0
0
0
0
0
0
0
0
0
0
0
0
0
0
0
0
0
0
0
0
0
0
0
0
0
0
0
0
0
0
0
0
0
0
0
0
0
0
0
0
0
0
0
0
0
0
0
0
0
0
0
0
0
0
0
0
0
0
0
0
0
0
0
0
0
0
0
0
0
0
0
0
0
0
0
0
0
0
0
0
0
0
0
0
0
0
0
0
0
0
0
0
0
0
0
0
0
0
0
0
0
0
0
0
0
0
0
0
0
0
0
0
0
0
0
0
0
0
0
0
0
0
0
0
0
0
0
0
0
0
0
0
0
0
0
0
0
0
0
0
0
0
0
0
0
0
0
0
0
0
0
0
0
0
0
0
0
0
0
0
0
0
0
0
0
0
0
0
0
0
0
0
0
0
0
5.94809e-171
-3.99293e-155
2.39926e-147
-1.36326e-143
-2.99943e-141
-3.0464e-139
-1.81781e-137
-5.96128e-136
2.13682e-135
1.65007e-132
1.23888e-130
6.22384e-129
2.48264e-127
8.37202e-126
2.46628e-124
6.47839e-123
1.53927e-121
3.34369e-120
6.69627e-119
1.24473e-117
2.1597e-116
3.51443e-115
5.38559e-114
7.79963e-113
1.07086e-111
1.39772e-110
1.73861e-109
2.0656e-108
2.3487e-107
2.56054e-106
2.6809e-105
2.6998e-104
2.6187e-103
2.4496e-102
2.21244e-101
1.93144e-100
1.63138e-99
1.33441e-98
1.05793e-97
8.13552e-97
6.0728e-96
4.40298e-95
3.10252e-94
2.12579e-93
1.41698e-92
9.19226e-92
5.80545e-91
3.5704e-90
2.13865e-89
1.24777e-88
7.09065e-88
3.92382e-87
2.11371e-86
1.10772e-85
5.64237e-85
2.7896e-84
1.33595e-83
6.17861e-83
2.74678e-82
1.16507e-81
4.65478e-81
1.70915e-80
5.4499e-80
1.24952e-79
-4.47732e-80
-3.10842e-78
-2.72531e-77
-1.80377e-76
-1.05086e-75
-5.66589e-75
-2.89232e-74
-1.41533e-73
-6.68912e-73
-3.06846e-72
-1.37091e-71
-5.98028e-71
-2.55202e-70
-1.06694e-69
-4.37526e-69
-1.76156e-68
-6.96907e-68
-2.71102e-67
-1.0376e-66
-3.90925e-66
-1.45051e-65
-5.30264e-65
-1.9106e-64
-6.78739e-64
-2.37809e-63
-8.22003e-63
-2.80389e-62
-9.44068e-62
-3.13842e-61
-1.03035e-60
-3.34143e-60
-1.07064e-59
-3.39015e-59
-1.06108e-58
-3.28336e-58
-1.00466e-57
-3.04044e-57
-9.10229e-57
-2.69613e-56
-7.90283e-56
-2.29272e-55
-6.58435e-55
-1.87213e-54
-5.27082e-54
-1.4696e-53
-4.05834e-53
-1.11013e-52
-3.00825e-52
-8.07624e-52
-2.14826e-51
-5.66209e-51
-1.47876e-50
-3.82709e-50
-9.81529e-50
-2.49466e-49
-6.28354e-49
-1.56851e-48
-3.88031e-48
-9.51368e-48
-2.31175e-47
-5.56744e-47
-1.32893e-46
-3.14411e-46
-7.37331e-46
-1.71405e-45
-3.95014e-45
-9.02541e-45
-2.04472e-44
-4.59371e-44
-1.02357e-43
-2.26233e-43
-4.96086e-43
-1.07942e-42
-2.33099e-42
-4.99671e-42
-1.06341e-41
-2.24729e-41
-4.71663e-41
-9.83269e-41
-2.0362e-40
-4.18892e-40
-8.56087e-40
-1.73799e-39
-3.50465e-39
-7.01838e-39
-1.39549e-38
-2.75414e-38
-5.39342e-38
-1.04757e-37
-2.01719e-37
-3.84885e-37
-7.27265e-37
-1.36009e-36
-2.51578e-36
-4.59936e-36
-8.30443e-36
-1.47961e-35
-2.599e-35
-4.49619e-35
-7.65161e-35
-1.27924e-34
-2.09777e-34
-3.36789e-34
-5.28139e-34
-8.06627e-34
-1.19538e-33
-1.71024e-33
-2.3457e-33
-3.05217e-33
-3.70503e-33
-4.07141e-33
-3.79391e-33
-2.43321e-33
3.52058e-34
4.36568e-33
8.02031e-33
6.96243e-33
-7.65558e-33
-5.02589e-32
-1.3828e-31
-2.78578e-31
-4.26784e-31
-3.87188e-31
4.084e-31
3.35391e-30
1.15459e-29
3.13996e-29
7.5503e-29
1.67456e-28
3.49766e-28
6.96223e-28
1.33051e-27
2.45293e-27
4.37667e-27
7.57388e-27
1.27286e-26
2.07885e-26
3.29977e-26
5.08818e-26
7.61388e-26
1.10375e-25
1.54619e-25
2.08559e-25
2.69531e-25
3.31463e-25
3.84315e-25
4.15241e-25
4.13702e-25
3.84431e-25
3.74456e-25
5.23462e-25
1.15046e-24
2.89349e-24
6.92157e-24
1.52377e-23
3.10837e-23
5.94382e-23
1.07559e-22
1.85453e-22
3.06051e-22
4.847e-22
7.37393e-22
1.07689e-21
1.50562e-21
2.00404e-21
2.51311e-21
2.90969e-21
2.97492e-21
2.35692e-21
5.3314e-22
-3.21808e-21
-9.81948e-21
-2.03442e-20
-3.58754e-20
-5.72277e-20
-8.44746e-20
-1.16224e-19
-1.48597e-19
-1.73904e-19
-1.79085e-19
-1.44087e-19
-4.05487e-20
1.68613e-19
5.27794e-19
1.08424e-18
1.87891e-18
2.93081e-18
4.21304e-18
5.61901e-18
6.91877e-18
7.70759e-18
7.35118e-18
4.93115e-18
-7.91792e-19
-1.13735e-17
-2.86059e-17
-5.43053e-17
-8.98937e-17
-1.35684e-16
-1.89818e-16
-2.46948e-16
-2.97024e-16
-3.24858e-16
-3.09768e-16
-2.1805e-16
1.83473e-17
5.6825e-16
1.72299e-15
3.5319e-15
5.3827e-15
6.0134e-15
8.72592e-16
-1.35702e-14
-2.88469e-14
-2.77692e-14
8.00454e-15
7.10518e-14
1.02939e-13
4.08794e-14
-1.29364e-13
-2.87888e-13
-2.32181e-13
1.46712e-13
6.79515e-13
8.15818e-13
1.41835e-13
-1.27912e-12
-2.35321e-12
-1.61035e-12
1.5301e-12
5.61606e-12
6.38146e-12
1.11507e-12
-9.86573e-12
-1.85891e-11
-1.4339e-11
8.3852e-12
4.08951e-11
5.44382e-11
2.40263e-11
-5.56395e-11
-1.43634e-10
-1.46986e-10
-1.86641e-11
2.37154e-10
4.55027e-10
3.98038e-10
-6.86885e-11
-8.48885e-10
-1.4048e-09
-1.09234e-09
4.13819e-10
2.75208e-09
4.28611e-09
3.25841e-09
-1.29935e-09
-8.3169e-09
-1.32146e-08
-1.07403e-08
2.08427e-09
2.31369e-08
4.05188e-08
3.77896e-08
5.33455e-09
-5.61617e-08
-1.21252e-07
-1.34185e-07
-6.65437e-08
1.00877e-07
3.21482e-07
4.57876e-07
3.75312e-07
-1.0122e-08
-6.73969e-07
-1.36439e-06
-1.57841e-06
-9.96624e-07
6.07073e-07
3.00406e-06
5.23647e-06
5.59423e-06
3.24919e-06
-2.61397e-06
-1.12358e-05
-1.94097e-05
-2.17127e-05
-1.49997e-05
3.73975e-06
3.3851e-05
6.75036e-05
8.85068e-05
8.11257e-05
3.43758e-05
-5.92101e-05
-0.000191084
-0.000327236
-0.000404534
-0.000368622
-0.000176551
0.000209164
0.000774151
0.00143129
0.0019933
0.002173
0.0018155
0.000701042
-0.00134536
-0.00434028
-0.0080529
-0.0119498
-0.0150871
-0.016079
-0.0142628
-0.00844578
0.0027902
0.0206845
0.0461991
0.0799113
0.121934
0.17188
0.228871
0.291601
0.358435
0.427533
0.496994
0.56499
0.629884
0.690325
0.745298
0.794157
0.836607
0.872671
0.902635
0.926984
0.946336
0.961374
0.972797
0.981275
0.987418
0.991761
0.994752
0.996758
0.998063
0.998887
0.999388
0.999682
0.999846
0.999933
0.999975
0.999994
1
1
1
1
1
1
1
1
1
1
1
1
1
1
1
1
1
1
1
1
1
1
1
1
1
1
1
0.999999
0.999997
0.999995
0.999994
0.999997
1
1.00001
1.00002
1.00002
1.00001
0.999996
0.999966
0.999932
0.999911
0.999919
0.999966
1.00006
1.00019
1.00033
1.0004
1.00037
1.00018
0.99979
0.999225
0.998568
0.998007
0.997828
0.998187
0.999303
1.00135
1.00435
1.00806
1.01195
1.01509
1.01607
1.01425
1.00843
0.997179
0.979274
0.953749
0.920026
0.877994
0.82804
0.771043
0.708309
0.641474
0.572378
0.50292
0.43493
0.370042
0.309609
0.254644
0.205793
0.163352
0.127296
0.0973387
0.0729948
0.053648
0.0386139
0.0271942
0.0187192
0.012578
0.00823667
0.00524601
0.00324126
0.00193603
0.00111273
0.000611291
0.000317778
0.000153785
6.72382e-05
2.48635e-05
6.34274e-06
3.54059e-07
4.63364e-17
4.58684e-17
4.53285e-17
4.432e-17
4.2936e-17
4.12524e-17
3.93373e-17
3.72519e-17
3.50507e-17
3.27817e-17
3.04864e-17
2.82003e-17
2.59529e-17
2.37685e-17
2.16664e-17
1.96616e-17
1.77651e-17
1.59841e-17
1.43232e-17
1.2784e-17
1.13663e-17
1.00678e-17
8.88484e-18
7.81267e-18
6.84568e-18
5.97764e-18
5.20194e-18
4.5118e-18
3.90039e-18
3.36094e-18
2.8869e-18
2.47194e-18
2.11009e-18
1.79572e-18
1.5236e-18
1.28887e-18
1.08711e-18
9.1428e-19
7.66727e-19
6.41169e-19
5.34673e-19
4.44634e-19
3.68747e-19
3.04986e-19
2.51575e-19
2.06969e-19
1.69826e-19
1.38988e-19
1.13458e-19
9.23819e-20
7.50323e-20
6.07893e-20
4.91288e-20
3.9608e-20
3.18552e-20
2.55587e-20
2.04581e-20
1.63369e-20
1.30157e-20
1.03457e-20
8.20464e-21
6.49196e-21
5.12528e-21
4.03731e-21
3.17329e-21
2.48872e-21
1.94761e-21
1.52087e-21
1.18511e-21
9.21516e-22
7.1505e-22
5.53687e-22
4.27853e-22
3.29939e-22
2.53915e-22
1.95012e-22
1.49473e-22
1.1434e-22
8.72915e-23
6.65102e-23
5.05771e-23
)
;

boundaryField
{
    sides
    {
        type            zeroGradient;
    }
    empty
    {
        type            empty;
    }
}


// ************************************************************************* //
