/*--------------------------------*- C++ -*----------------------------------*\
| =========                 |                                                 |
| \\      /  F ield         | OpenFOAM: The Open Source CFD Toolbox           |
|  \\    /   O peration     | Version:  2312                                  |
|   \\  /    A nd           | Website:  www.openfoam.com                      |
|    \\/     M anipulation  |                                                 |
\*---------------------------------------------------------------------------*/
FoamFile
{
    version     2.0;
    format      ascii;
    arch        "LSB;label=32;scalar=64";
    class       volScalarField;
    location    "1.4";
    object      T;
}
// * * * * * * * * * * * * * * * * * * * * * * * * * * * * * * * * * * * * * //

dimensions      [0 0 0 1 0 0 0];

internalField   nonuniform List<scalar> 
1000
(
0
0
0
0
0
0
0
0
0
0
0
0
0
0
0
0
0
0
0
0
0
0
0
0
0
0
0
0
0
0
0
0
0
0
0
0
0
0
0
0
0
0
0
0
0
0
0
0
0
0
0
0
0
0
0
0
0
0
0
0
0
0
0
0
0
0
0
0
0
0
0
0
0
0
0
0
0
0
0
0
0
0
0
0
0
0
0
0
0
0
0
0
0
-9.88131e-324
2.66795e-322
-5.24204e-321
1.04233e-319
-2.06417e-318
4.07164e-317
-8e-316
1.56568e-314
-3.05216e-313
5.92648e-312
-1.14622e-310
2.20809e-309
-4.23684e-308
8.09723e-307
-1.54134e-305
2.92228e-304
-5.51831e-303
1.03788e-301
-1.94418e-300
3.62721e-299
-6.73991e-298
1.24731e-296
-2.29895e-295
4.22004e-294
-7.71489e-293
1.40464e-291
-2.54696e-290
4.5993e-289
-8.27125e-288
1.48135e-286
-2.64207e-285
4.69277e-284
-8.30054e-283
1.46208e-281
-2.56461e-280
4.47972e-279
-7.79211e-278
1.34968e-276
-2.32793e-275
3.99826e-274
-6.83799e-273
1.1645e-271
-1.97467e-270
3.3342e-269
-5.60567e-268
9.38417e-267
-1.5642e-265
2.59603e-264
-4.28988e-263
7.05818e-262
-1.15624e-260
1.88584e-259
-3.06239e-258
4.95115e-257
-7.96965e-256
1.27718e-254
-2.03772e-253
3.23672e-252
-5.11835e-251
8.05778e-250
-1.26286e-248
1.97035e-247
-3.06036e-246
4.73196e-245
-7.28349e-244
1.116e-242
-1.70219e-241
2.58444e-240
-3.906e-239
5.87625e-238
-8.79961e-237
1.31165e-235
-1.94605e-234
2.87387e-233
-4.22427e-232
6.18019e-231
-8.99931e-230
1.30427e-228
-1.88137e-227
2.70095e-226
-3.85916e-225
5.48773e-224
-7.76626e-223
1.09381e-221
-1.53313e-220
2.13851e-219
-2.96849e-218
4.10056e-217
-5.63673e-216
7.71046e-215
-1.04953e-213
1.42156e-212
-1.91593e-211
2.56942e-210
-3.42865e-209
4.55234e-208
-6.01398e-207
7.90493e-206
-1.03379e-204
1.34513e-203
-1.74131e-202
2.24267e-201
-2.87357e-200
3.663e-199
-4.6452e-198
5.86021e-197
-7.35455e-196
9.18172e-195
-1.14027e-193
1.40864e-192
-1.73096e-191
2.11576e-190
-2.57231e-189
3.11065e-188
-3.74145e-187
4.47589e-186
-5.32551e-185
6.30194e-184
-7.41668e-183
8.68074e-182
-1.01043e-180
1.16962e-179
-1.34638e-178
1.5412e-177
-1.75433e-176
1.98569e-175
-2.23486e-174
2.50102e-173
-2.78291e-172
3.07883e-171
-3.38662e-170
3.70363e-169
-4.02679e-168
4.3526e-167
-4.67718e-166
4.99635e-165
-5.3057e-164
5.60069e-163
-5.87674e-162
6.12935e-161
-6.35422e-160
6.54737e-159
-6.70525e-158
6.82484e-157
-6.90377e-156
6.94035e-155
-6.93369e-154
6.88368e-153
-6.79103e-152
6.65724e-151
-6.48457e-150
6.27598e-149
-6.03504e-148
5.76582e-147
-5.47277e-146
5.16064e-145
-4.8343e-144
4.49862e-143
-4.15839e-142
3.81815e-141
-3.48214e-140
3.15417e-139
-2.83761e-138
2.53531e-137
-2.24957e-136
1.98217e-135
-1.73434e-134
1.50682e-133
-1.29987e-132
1.11335e-131
-9.46746e-131
7.99256e-130
-6.69833e-129
5.57255e-128
-4.60176e-127
3.77186e-126
-3.06849e-125
2.47746e-124
-1.98508e-123
1.57839e-122
-1.24535e-121
9.74942e-121
-7.57276e-120
5.83566e-119
-4.46126e-118
3.38322e-117
-2.54494e-116
1.89876e-115
-1.40501e-114
1.03104e-113
-7.50282e-113
5.41371e-112
-3.87305e-111
2.74705e-110
-1.93152e-109
1.34622e-108
-9.29997e-108
6.36732e-107
-4.32019e-106
2.90457e-105
-1.93487e-104
1.27694e-103
-8.34829e-103
5.40612e-102
-3.46729e-101
2.20224e-100
-1.38503e-99
8.62434e-99
-5.31632e-98
3.24386e-97
-1.95895e-96
1.17068e-95
-6.92221e-95
4.04935e-94
-2.34312e-93
1.34093e-92
-7.5884e-92
4.24577e-91
-2.34828e-90
1.28367e-89
-6.93399e-89
3.70046e-88
-1.95067e-87
1.01548e-86
-5.21939e-86
2.64806e-85
-1.32582e-84
6.54907e-84
-3.19071e-83
1.53278e-82
-7.25807e-82
3.3866e-81
-1.55652e-80
7.04406e-80
-3.13757e-79
1.37489e-78
-5.92438e-78
2.50891e-77
-1.04363e-76
4.26146e-76
-1.70692e-75
6.70156e-75
-2.57675e-74
9.69338e-74
-3.5637e-73
1.27877e-72
-4.47189e-72
1.52135e-71
-5.0242e-71
1.6064e-70
-4.95591e-70
1.4688e-69
-4.15673e-69
1.11353e-68
-2.78555e-68
6.35467e-68
-1.25888e-67
1.88417e-67
-6.99232e-68
-9.15436e-67
4.7741e-66
-1.622e-65
4.34267e-65
-9.18144e-65
1.30465e-64
1.63926e-65
-9.21595e-64
3.9206e-63
-1.0974e-62
2.15678e-62
-2.04179e-62
-5.33171e-62
3.50991e-61
-1.0914e-60
2.16321e-60
-1.67901e-60
-7.11128e-60
3.82812e-59
-1.02196e-58
1.46837e-58
9.13038e-59
-1.25703e-57
4.02077e-57
-6.66679e-57
-1.2526e-57
4.56918e-56
-1.50524e-55
2.32805e-55
1.40327e-55
-1.89287e-54
5.34431e-54
-5.72503e-54
-1.42575e-53
7.94227e-53
-1.59263e-52
6.04482e-54
9.39252e-52
-2.80849e-51
2.54508e-51
9.46482e-51
-4.17581e-50
5.94599e-50
8.50102e-50
-5.77972e-49
1.02055e-48
7.49785e-49
-7.86829e-48
1.52515e-47
8.38206e-48
-1.08511e-46
2.07412e-46
1.45438e-46
-1.52111e-45
2.54761e-45
3.13848e-45
-2.11975e-44
2.64395e-44
6.59539e-44
-2.8099e-43
1.77933e-43
1.23636e-42
-3.3005e-42
-8.84737e-43
1.99161e-41
-2.95881e-41
-6.00872e-41
2.61702e-40
-8.86977e-41
-1.29436e-39
2.44053e-39
3.45783e-39
-1.81564e-38
6.37377e-39
8.93002e-38
-1.49714e-37
-2.90945e-37
1.14987e-36
2.10182e-37
-6.33145e-36
5.70551e-36
2.74514e-35
-5.71394e-35
-8.94992e-35
3.78927e-34
1.38666e-34
-2.07641e-33
8.9579e-34
1.00261e-32
-1.15211e-32
-4.37615e-32
8.51918e-32
1.74053e-31
-5.21576e-31
-6.27161e-31
2.89326e-30
1.99535e-30
-1.51302e-29
-5.20669e-30
7.63004e-29
8.32963e-30
-3.76516e-28
1.34461e-29
1.83539e-27
-1.77193e-28
-8.88362e-27
6.60391e-28
4.27333e-26
1.30043e-27
-2.03607e-25
-4.41847e-26
9.53453e-25
4.64408e-25
-4.3329e-24
-3.68976e-24
1.87395e-23
2.52079e-23
-7.46786e-23
-1.54296e-22
2.56861e-22
8.56659e-22
-6.24262e-22
-4.29782e-21
-2.57024e-22
1.90915e-20
1.63162e-20
-7.13152e-20
-1.34616e-19
1.91419e-19
7.73538e-19
-6.80723e-20
-3.43558e-18
-3.38997e-18
1.10401e-17
2.72555e-17
-1.46966e-17
-1.33915e-16
-1.07759e-16
4.22766e-16
1.02081e-15
-3.4756e-16
-4.72892e-15
-5.4857e-15
1.11756e-14
3.96226e-14
1.71566e-14
-1.32399e-13
-2.88197e-13
4.12136e-14
1.21753e-12
1.99233e-12
-1.18581e-12
-9.98057e-12
-1.41923e-11
1.13089e-11
7.66997e-11
1.09961e-10
-6.75304e-11
-5.54878e-10
-9.16999e-10
9.97581e-11
3.6133e-09
7.65576e-09
4.07629e-09
-1.84387e-08
-5.7672e-08
-7.05181e-08
3.55016e-08
3.35521e-07
7.06572e-07
6.0869e-07
-8.87019e-07
-4.37734e-06
-8.45835e-06
-7.71726e-06
7.49683e-06
4.60304e-05
0.000102556
0.000137056
5.72673e-05
-0.000274201
-0.000977817
-0.00201296
-0.00294621
-0.00266773
0.000858739
0.0106894
0.030714
0.0651205
0.117545
0.190068
0.282322
0.390997
0.509968
0.631097
0.745573
0.845466
0.925104
0.981928
1.01663
1.03259
1.03483
1.02883
1.01943
1.01018
1.00308
0.998803
0.997028
0.996976
0.997793
0.998808
0.999626
1.00011
1.00029
1.00028
1.00018
1.00008
1.00001
0.999976
0.999972
0.99998
0.999991
0.999998
1
1
1
1
1
1
1
1
1
1
1
1
1
1
1
1
1
1
1
1
1
1
1
1
1
1
1
1
1
1
1
1
1
1
1
1
1
1
1
1
1
1
1
1
1
1
0.999999
0.999999
1
1
1.00001
1.00001
0.999993
0.999954
0.999897
0.999863
0.999943
1.00027
1.00098
1.00201
1.00295
1.00267
0.999141
0.989311
0.969286
0.934879
0.882455
0.809932
0.717678
0.609003
0.490032
0.368903
0.254427
0.154534
0.0748956
0.0180715
-0.0166283
-0.0325855
-0.0348298
-0.0288287
-0.0194294
-0.0101768
-0.00308482
0.00119659
0.00297234
0.00302428
0.00220686
0.00119228
0.000374084
-0.000109584
-0.000290837
-0.000277281
-0.000180441
-7.85064e-05
-8.60446e-06
2.35051e-05
2.83195e-05
1.99872e-05
9.25947e-06
1.53212e-06
-2.07484e-06
-2.66313e-06
-1.83858e-06
-7.92561e-07
-8.11098e-08
2.14659e-07
2.33261e-07
1.41724e-07
4.86389e-08
-5.2053e-09
-2.17473e-08
-1.78786e-08
-8.58901e-09
-1.57648e-09
1.49153e-09
1.82547e-09
1.08953e-09
3.40608e-10
-6.14945e-11
-1.60653e-10
-1.1496e-10
-4.50459e-11
-1.3791e-12
1.27347e-11
1.0736e-11
4.7797e-12
5.95567e-13
-9.47943e-13
-9.19703e-13
-4.40135e-13
-7.43436e-14
6.9199e-14
7.38949e-14
3.63872e-14
6.65458e-15
-5.13713e-15
-5.63687e-15
-2.7422e-15
-4.75119e-16
3.92683e-16
4.09615e-16
1.89121e-16
2.68044e-17
-3.03797e-17
-2.82405e-17
-1.18744e-17
-1.02128e-18
2.30199e-18
1.82961e-18
6.68379e-19
-1.91725e-21
-1.65562e-19
-1.09866e-19
-3.26479e-20
4.945e-21
1.10371e-20
6.00489e-21
1.28091e-21
-5.82441e-22
-6.69954e-22
-2.91035e-22
-3.0098e-23
4.7427e-23
3.64229e-23
1.19428e-23
-7.67106e-25
-3.12241e-24
-1.73673e-24
-3.6986e-25
1.54984e-25
1.7311e-25
7.00438e-26
4.60195e-27
-1.21608e-26
-8.1182e-27
-2.19389e-27
4.17432e-28
6.96305e-28
3.14705e-28
3.75486e-29
-4.26951e-29
-3.17977e-29
-9.33758e-30
1.12309e-30
2.48435e-30
1.1579e-30
1.5151e-31
-1.43052e-31
-1.07756e-31
-3.10424e-32
3.88589e-33
8.03038e-33
3.57308e-33
3.91316e-34
-4.63635e-34
-3.18613e-34
-8.16669e-35
1.60966e-35
2.34274e-35
9.22968e-36
5.10892e-37
-1.40782e-36
-8.13745e-37
-1.63119e-37
6.21295e-38
6.03448e-38
1.94338e-38
-8.43055e-40
-3.81301e-39
-1.74888e-39
-2.06751e-40
1.9875e-40
1.32885e-40
3.11039e-41
-7.36837e-42
-8.81048e-42
-3.01529e-42
2.11779e-44
5.10708e-43
2.39842e-43
2.98495e-44
-2.51328e-44
-1.6689e-44
-3.75064e-45
9.40238e-46
1.03916e-45
3.31091e-46
-1.24742e-47
-5.81216e-47
-2.4636e-47
-2.11991e-48
2.88138e-48
1.63262e-48
2.90197e-49
-1.20983e-49
-9.85514e-50
-2.54504e-50
3.66627e-51
5.46671e-51
1.8561e-51
-4.29966e-54
-2.78613e-52
-1.20702e-52
-1.12017e-53
1.29155e-53
7.20389e-54
1.20809e-54
-5.29424e-55
-4.0022e-55
-9.36966e-56
1.77268e-56
2.08431e-56
6.23519e-57
-3.39594e-58
-1.0201e-57
-3.76291e-58
-1.33222e-59
4.68498e-59
2.11129e-59
2.18981e-60
-2.00611e-60
-1.11615e-60
-1.79439e-61
7.89022e-62
5.60374e-62
1.18834e-62
-2.75477e-63
-2.68502e-63
-7.01176e-64
7.76939e-65
1.2315e-64
3.82691e-65
-1.09661e-66
-5.41533e-66
-1.96846e-66
-6.47363e-68
2.28391e-67
9.64668e-68
7.94146e-69
-9.2298e-69
-4.53561e-69
-5.63252e-70
3.56488e-70
2.05589e-70
3.31273e-71
-1.30934e-71
-9.01598e-72
-1.75687e-72
4.53107e-73
3.83584e-73
8.68879e-74
-1.45144e-74
-1.5867e-74
-4.07641e-75
4.14267e-76
6.39297e-76
1.8326e-76
-9.47755e-78
-2.51285e-77
-7.94636e-78
9.56398e-80
9.64912e-79
3.33849e-79
6.83787e-81
-3.62428e-80
-1.36353e-80
-6.50812e-82
1.3332e-81
5.42792e-82
3.85014e-83
-4.80857e-83
-2.11027e-83
-1.91841e-84
1.70255e-84
8.0261e-85
8.68578e-86
-5.92479e-86
-2.99046e-86
-3.68593e-87
2.029e-87
1.09283e-87
1.48945e-88
-6.84699e-89
-3.92086e-89
-5.78432e-90
2.27997e-90
1.38232e-90
2.17152e-91
-7.50237e-92
-4.79241e-92
-7.91173e-93
2.44311e-93
1.63494e-93
2.80532e-94
-7.88487e-95
-5.49146e-95
-9.69984e-96
2.52551e-96
1.81682e-96
3.27532e-97
-8.03782e-98
-5.92289e-98
-1.08122e-98
2.54441e-99
1.9032e-99
3.49204e-100
-8.01663e-101
-6.02915e-101
-1.104e-101
2.51474e-102
1.88328e-102
3.41749e-103
-7.85364e-104
-5.80089e-104
-1.03596e-104
2.4409e-105
1.76198e-105
3.07484e-106
-7.54442e-107
-5.27729e-107
-8.93335e-108
2.31682e-108
1.55841e-108
2.5391e-109
-7.06119e-110
-4.53675e-110
-7.05439e-111
2.13347e-111
1.30169e-111
1.91354e-112
-6.38288e-113
-3.68011e-113
-5.05928e-114
1.88882e-114
1.02487e-114
1.30074e-115
-5.52289e-116
-2.81048e-116
-3.24095e-117
1.59419e-117
7.58607e-118
7.78641e-119
-4.53897e-119
-2.01456e-119
-1.78954e-120
1.2738e-120
5.26066e-121
3.88186e-122
-3.52124e-122
-1.35001e-122
-7.74642e-124
9.58283e-124
3.40225e-124
1.34055e-125
-2.56611e-125
-8.41343e-126
-1.647e-127
6.75834e-127
2.03955e-127
-5.0707e-130
-1.74983e-128
-4.84096e-129
1.32302e-130
4.45205e-130
1.12337e-130
-6.26084e-132
-1.11262e-131
-2.54377e-132
2.25967e-133
2.72999e-133
5.60666e-134
-7.19565e-135
-6.5735e-135
-1.19866e-135
2.12118e-136
1.55245e-136
2.47328e-137
-5.91621e-138
-3.59383e-138
-4.88774e-139
1.57959e-139
8.14891e-140
9.13522e-141
-4.08799e-141
-1.45127e-141
)
;

boundaryField
{
    sides
    {
        type            zeroGradient;
    }
    empty
    {
        type            empty;
    }
}


// ************************************************************************* //
