/*--------------------------------*- C++ -*----------------------------------*\
| =========                 |                                                 |
| \\      /  F ield         | OpenFOAM: The Open Source CFD Toolbox           |
|  \\    /   O peration     | Version:  2312                                  |
|   \\  /    A nd           | Website:  www.openfoam.com                      |
|    \\/     M anipulation  |                                                 |
\*---------------------------------------------------------------------------*/
FoamFile
{
    version     2.0;
    format      ascii;
    arch        "LSB;label=32;scalar=64";
    class       volScalarField;
    location    "4.4";
    object      T;
}
// * * * * * * * * * * * * * * * * * * * * * * * * * * * * * * * * * * * * * //

dimensions      [0 0 0 1 0 0 0];

internalField   nonuniform List<scalar> 
1000
(
0.554759
0.477607
0.456401
0.390758
0.346301
0.300975
0.241551
0.220126
0.154415
0.153734
0.0904007
0.102114
0.049371
0.062899
0.0274219
0.0333764
0.0187151
0.0118238
0.0170042
-0.00231564
0.0168776
-0.00911578
0.0147279
-0.00915488
0.00931888
-0.00422057
0.00173387
0.00268986
-0.00541229
0.00816239
-0.00933573
0.00963531
-0.00853484
0.00651878
-0.00367334
0.00051024
0.00260861
-0.00521272
0.00697402
-0.00764582
0.00716559
-0.00562913
0.0033001
-0.000558638
-0.00215037
0.00439237
-0.00581233
0.00619606
-0.00550707
0.00389448
-0.00166784
-0.000757223
0.00293402
-0.00446703
0.00508615
-0.0046983
0.00340558
-0.00148523
-0.000665733
0.0026111
-0.00396529
0.00447386
-0.0040674
0.0028765
-0.00120339
-0.000544194
0.00194339
-0.00265051
0.00247784
-0.00143462
-0.000278181
0.00231891
-0.00429072
0.00584098
-0.0067504
0.00698919
-0.00672535
0.00628232
-0.0060559
0.00641153
-0.00758886
0.00963882
-0.0124107
0.0155927
-0.0187956
0.0216556
-0.0239279
0.0255437
-0.0266135
0.0273764
-0.028109
0.029022
-0.0301761
0.0314434
-0.0325282
0.0330409
-0.0326056
0.0309667
-0.0280639
0.0240512
-0.0192554
0.0140886
-0.00894246
0.00410067
0.000303004
-0.00426849
0.00786336
-0.0111333
0.0140248
-0.0163511
0.0178194
-0.0181114
0.0169938
-0.0144182
0.010576
-0.00588542
0.000912586
0.00374826
-0.00759788
0.010319
-0.0118032
0.0121161
-0.0114221
0.00990515
-0.00771802
0.00498034
-0.00182041
-0.00156529
0.00487098
-0.00768955
0.00957978
-0.0101769
0.0093091
-0.00707485
0.0038483
-0.000204033
-0.00321701
0.00585709
-0.00735874
0.0076155
-0.00674902
0.00503337
-0.0028037
0.000386002
0.00193324
-0.00390242
0.00528991
-0.0058875
0.00554779
-0.00424741
0.00214624
0.000395226
-0.00286644
0.00472331
-0.0055379
0.00512883
-0.00362216
0.00141689
0.000933868
-0.00288322
0.00403513
-0.00422698
0.00353218
-0.00219793
0.000554767
0.00106442
-0.00237465
0.0031606
-0.00328782
0.00272043
-0.00154714
-1.98498e-06
0.00157432
-0.00276578
0.0032351
-0.00282402
0.00163209
-5.60932e-06
-0.00156614
0.00261342
-0.00284487
0.00224002
-0.00104073
-0.00034933
0.00151103
-0.00214208
0.0021295
-0.00154926
0.000611268
0.000415911
-0.00127219
0.00175367
-0.00174529
0.00124563
-0.000380568
-0.000608578
0.00141785
-0.00177288
0.0015335
-0.000764758
-0.000267117
0.00118556
-0.00165032
0.00149698
-0.000804872
-0.000139726
0.000967704
-0.00138029
0.00126169
-0.000705709
-4.47614e-05
0.000707436
-0.00106631
0.00103359
-0.000656675
8.37706e-05
0.000489425
-0.000875365
0.000945469
-0.000670959
0.00014257
0.000446735
-0.000864099
0.000930161
-0.000605141
2.10752e-05
0.000566626
-0.000893928
0.000815166
-0.000375715
-0.000210514
0.000668476
-0.000797314
0.000562383
-9.91414e-05
-0.000365944
0.000629259
-0.000598552
0.000317996
7.00925e-05
-0.000397049
0.000536387
-0.000444936
0.000170424
0.000169797
-0.000431478
0.000498563
-0.000334935
9.71781e-06
0.000324276
-0.000499515
0.000421228
-0.000125124
-0.000233801
0.000462708
-0.000439175
0.00018187
0.000160806
-0.000398246
0.000407652
-0.000199714
-9.68244e-05
0.00031665
-0.000351781
0.000202856
3.49082e-05
-0.000232985
0.000297556
-0.000209324
2.28337e-05
0.000165665
-0.000263603
0.000223318
-6.50074e-05
-0.000129333
0.000253737
-0.000234957
7.87105e-05
0.000126121
-0.000255947
0.000228959
-6.06118e-05
-0.000142544
0.000250983
-0.000197837
2.27475e-05
0.000156945
-0.000226748
0.000150037
1.34973e-05
-0.000154438
0.00018815
-0.000105032
-3.27646e-05
0.000138032
-0.000152826
7.72639e-05
3.80412e-05
-0.000124705
0.000134156
-6.25918e-05
-4.6938e-05
0.000127346
-0.000126495
4.19567e-05
7.24912e-05
-0.000138932
0.000109052
-1.79566e-06
-0.000106546
0.000137001
-6.76438e-05
-4.88283e-05
0.000125238
-0.000106854
1.19985e-05
8.5142e-05
-0.000113665
5.85956e-05
3.3014e-05
-9.26826e-05
8.20459e-05
-1.60576e-05
-5.44306e-05
8.171e-05
-5.18605e-05
-1.07668e-05
6.28248e-05
-7.01055e-05
2.84516e-05
3.33867e-05
-7.15512e-05
5.70049e-05
1.44024e-06
-6.01817e-05
7.24746e-05
-2.66796e-05
-4.12704e-05
7.54691e-05
-4.70922e-05
-1.98517e-05
6.8474e-05
-5.83261e-05
1.9836e-07
5.4747e-05
-6.08115e-05
1.65036e-05
3.74897e-05
-5.62024e-05
2.81016e-05
1.93651e-05
-4.67328e-05
3.51108e-05
2.31675e-06
-3.47112e-05
3.83096e-05
-1.24028e-05
-2.21791e-05
3.87369e-05
-2.40975e-05
-1.07147e-05
3.73797e-05
-3.2472e-05
-1.34556e-06
3.49777e-05
-3.75102e-05
5.4621e-06
3.19476e-05
-3.94097e-05
9.75796e-06
2.84164e-05
-3.85672e-05
1.20118e-05
2.4338e-05
-3.55858e-05
1.29684e-05
1.96543e-05
-3.12658e-05
1.34586e-05
1.44543e-05
-2.65429e-05
1.41879e-05
9.07585e-06
-2.23548e-05
1.55433e-05
4.10546e-06
-1.94517e-05
1.74752e-05
2.55664e-07
-1.81981e-05
1.9509e-05
-1.85829e-06
-1.84445e-05
2.09113e-05
-1.97102e-06
-1.9546e-05
2.0983e-05
-3.42199e-07
-2.05657e-05
1.93841e-05
2.25032e-06
-2.06294e-05
1.6354e-05
4.74842e-06
-1.93066e-05
1.26944e-05
6.22803e-06
-1.68438e-05
9.46931e-06
6.3239e-06
-1.40943e-05
7.51228e-06
5.44121e-06
-1.21151e-05
6.96917e-06
4.58655e-06
-1.15837e-05
7.14914e-06
4.82994e-06
-1.23394e-05
6.84289e-06
6.64282e-06
-1.33601e-05
5.01216e-06
9.50366e-06
-1.32824e-05
1.48144e-06
1.20853e-05
-1.12293e-05
-2.83342e-06
1.30108e-05
-7.43374e-06
-6.40794e-06
1.17492e-05
-3.17278e-06
-8.08025e-06
9.01483e-06
5.8163e-08
-7.85866e-06
6.28218e-06
1.61165e-06
-6.9011e-06
4.66454e-06
2.16474e-06
-6.55467e-06
4.0012e-06
3.10633e-06
-7.14269e-06
2.99186e-06
5.21043e-06
-7.56269e-06
4.28155e-07
7.7175e-06
-6.21752e-06
-3.46782e-06
8.78974e-06
-2.60714e-06
-6.90419e-06
7.13677e-06
1.89915e-06
-7.93516e-06
3.36314e-06
5.04035e-06
-6.2323e-06
-4.00023e-07
5.63657e-06
-3.40645e-06
-2.41746e-06
4.57999e-06
-1.36933e-06
-2.90028e-06
3.65724e-06
-3.87085e-07
-3.39181e-06
3.38447e-06
9.04693e-07
-4.544e-06
2.42906e-06
3.35144e-06
-4.96718e-06
-4.3006e-07
5.58004e-06
-2.8827e-06
-4.08462e-06
5.20777e-06
1.20257e-06
-5.7124e-06
1.85707e-06
4.38053e-06
-3.95135e-06
-1.90989e-06
4.44414e-06
-6.56827e-07
-3.37965e-06
2.37514e-06
1.36955e-06
-2.73382e-06
7.12126e-07
1.77687e-06
-2.07903e-06
-7.15145e-09
2.29399e-06
-1.85383e-06
-1.36695e-06
3.14032e-06
-3.13251e-07
-3.45242e-06
2.15932e-06
2.74514e-06
-3.5986e-06
-1.29126e-06
4.24552e-06
-4.46272e-07
-3.98843e-06
1.97644e-06
2.98174e-06
-2.92231e-06
-1.56409e-06
3.10674e-06
1.40177e-07
-2.56902e-06
9.34135e-07
1.52181e-06
-1.43373e-06
-2.71726e-07
1.2987e-06
-8.68893e-07
-6.22563e-07
1.65542e-06
-3.93387e-07
-1.95521e-06
1.50169e-06
1.75847e-06
-2.46884e-06
-1.16054e-06
3.12099e-06
3.25379e-07
-3.36841e-06
5.57732e-07
3.20841e-06
-1.31411e-06
-2.7107e-06
1.81295e-06
1.99218e-06
-1.98285e-06
-1.18812e-06
1.81371e-06
4.25989e-07
-1.34796e-06
1.9404e-07
6.65086e-07
-6.10145e-07
1.36376e-07
8.01458e-07
-9.55682e-07
-7.8382e-07
1.70329e-06
6.00887e-07
-2.30953e-06
-3.12982e-07
2.72857e-06
-1.42269e-08
-2.93818e-06
3.19639e-07
2.93669e-06
-5.54295e-07
-2.73831e-06
6.86205e-07
2.36807e-06
-7.02457e-07
-1.85736e-06
6.08913e-07
1.24067e-06
-4.27913e-07
-5.53723e-07
1.94426e-07
-1.66994e-07
4.89463e-08
8.83813e-07
-2.57762e-07
-1.55709e-06
3.91966e-07
2.14483e-06
-4.22155e-07
-2.60338e-06
3.35327e-07
2.88993e-06
-1.39389e-07
-2.96705e-06
-1.34493e-07
2.80928e-06
4.32712e-07
-2.41098e-06
-6.84169e-07
1.79416e-06
8.09887e-07
-1.01424e-06
-7.37126e-07
1.61249e-07
4.16665e-07
6.45939e-07
1.59481e-07
-1.27411e-06
-9.44042e-07
1.59897e-06
1.82924e-06
-1.53482e-06
-2.65521e-06
1.06507e-06
3.23534e-06
-2.65224e-07
-3.39784e-06
-6.91623e-07
3.03762e-06
1.55565e-06
-2.16608e-06
-2.0516e-06
9.41523e-07
1.95557e-06
3.37876e-07
-1.18078e-06
-1.29123e-06
-1.55047e-07
1.56099e-06
1.71363e-06
-9.46423e-07
-2.99782e-06
-4.77974e-07
3.49671e-06
2.31462e-06
-2.88531e-06
-3.91397e-06
1.2121e-06
4.57956e-06
1.01676e-06
-3.86347e-06
-2.93719e-06
1.8437e-06
3.63398e-06
7.64163e-07
-2.57744e-06
-2.78521e-06
6.48695e-09
3.07016e-06
2.97694e-06
-1.13222e-06
-4.77115e-06
-2.38048e-06
4.05863e-06
5.73257e-06
-6.87442e-07
-6.84657e-06
-3.88395e-06
4.53138e-06
7.05431e-06
4.56236e-07
-6.50056e-06
-5.34316e-06
1.90513e-06
6.72026e-06
4.19006e-06
-2.90385e-06
-7.43318e-06
-4.20265e-06
4.55261e-06
9.49944e-06
3.58163e-06
-7.94685e-06
-1.13355e-05
-9.9943e-07
1.17369e-05
1.13733e-05
-2.4691e-06
-1.40896e-05
-1.0305e-05
4.73988e-06
1.51255e-05
1.02979e-05
-5.21028e-06
-1.67387e-05
-1.25759e-05
5.16227e-06
2.03666e-05
1.64513e-05
-5.86937e-06
-2.55074e-05
-2.06825e-05
6.77696e-06
3.04005e-05
2.5324e-05
-5.57697e-06
-3.36704e-05
-3.20126e-05
-3.00552e-07
3.49056e-05
4.2473e-05
1.24912e-05
-3.34914e-05
-5.65423e-05
-3.16832e-05
2.67422e-05
7.08624e-05
5.79888e-05
-8.98938e-06
-7.82631e-05
-8.99766e-05
-2.71177e-05
6.7359e-05
0.000121103
8.61835e-05
-2.30577e-05
-0.000134044
-0.000161494
-6.85879e-05
9.67166e-05
0.000222245
0.00020507
3.06872e-05
-0.00020233
-0.000337422
-0.000261948
1.14205e-05
0.000337422
0.000512282
0.000390694
-1.59736e-05
-0.000517432
-0.000823563
-0.000697914
-0.000108796
0.00071168
0.0013483
0.00139522
0.000670398
-0.000650961
-0.00205131
-0.0028422
-0.00244133
-0.000658508
0.00212449
0.00497229
0.0066374
0.00596505
0.00233986
-0.00395813
-0.0115873
-0.0182135
-0.0208065
-0.0161062
-0.00116144
0.0261776
0.0669171
0.120781
0.186277
0.260922
0.341573
0.424819
0.507346
0.586255
0.659262
0.724785
0.78194
0.830468
0.870631
0.903077
0.928695
0.948484
0.963441
0.974503
0.982513
0.988204
0.99218
0.994913
0.996752
0.997956
0.998722
0.999207
0.999522
0.99973
0.999858
0.999922
0.999942
0.99995
0.999969
0.999999
1.00002
1.00002
0.999992
0.999971
0.999975
1
1.00003
1.00003
1
0.999964
0.999956
0.999988
1.00004
1.00006
1.00003
0.999972
0.99993
0.999944
1.00001
1.00008
1.00009
1.00003
0.999934
0.999878
0.999912
1.00002
1.00014
1.00016
1.00007
0.999902
0.999779
0.999797
0.99997
1.0002
1.00034
1.00026
0.999991
0.999662
0.999485
0.999608
1.00002
1.00052
1.00082
1.00069
1.00011
0.999291
0.998654
0.998604
0.999326
1.00065
1.00205
1.00285
1.00244
1.00065
0.997874
0.99503
0.993367
0.994035
0.997656
1.00396
1.01159
1.01822
1.02081
1.0161
1.00116
0.973823
0.933089
0.879222
0.813719
0.739072
0.658425
0.575187
0.49266
0.413744
0.340731
0.27521
0.218064
0.16954
0.129373
0.0969175
0.0712954
0.051514
0.0365673
0.0255071
0.017487
0.0117852
0.00780911
0.00508828
0.00326065
0.00205519
0.00127424
0.000777214
0.00046638
0.000275336
0.000159926
9.13897e-05
5.13791e-05
2.84157e-05
1.54587e-05
8.27139e-06
4.35217e-06
2.2515e-06
1.14491e-06
5.72107e-07
2.80828e-07
1.35357e-07
6.40293e-08
2.97081e-08
1.351e-08
6.01636e-09
2.62085e-09
1.11531e-09
4.62855e-10
1.8691e-10
7.32272e-11
2.77203e-11
1.00799e-11
3.48919e-12
1.13254e-12
3.34992e-13
8.44756e-14
1.43025e-14
-1.44284e-15
-3.00701e-15
-1.94209e-15
-9.64612e-16
-4.15891e-16
-1.61294e-16
-5.6668e-17
-1.78011e-17
-4.77502e-18
-9.34402e-19
-1.37567e-20
1.11842e-19
7.71923e-20
3.74554e-20
1.51668e-20
5.3286e-21
1.61118e-21
3.92166e-22
5.59747e-23
-1.21188e-23
-1.47499e-23
-8.03024e-24
-3.35852e-24
-1.17302e-24
-3.41266e-25
-7.54121e-26
-6.82097e-27
4.66959e-27
3.72194e-27
1.76592e-27
6.5828e-28
2.00406e-28
4.68244e-29
5.5398e-30
-1.99354e-30
-1.8392e-30
-8.83321e-31
-3.22976e-31
-9.39561e-32
-1.98552e-32
-1.32249e-33
1.41806e-33
9.80252e-34
4.18858e-34
1.37405e-34
3.4336e-35
5.0089e-36
-8.11083e-37
-1.00339e-36
-4.87633e-37
-1.71312e-37
-4.56679e-38
-7.7799e-39
4.07897e-40
1.04201e-39
5.40452e-40
1.93244e-40
5.1542e-41
8.66113e-42
-4.98971e-43
-1.15639e-42
-5.82146e-43
-2.00564e-43
-5.0384e-44
-7.17588e-45
1.15785e-45
1.33571e-45
6.0084e-46
1.89001e-46
4.15209e-47
3.51946e-48
-2.18702e-48
-1.4931e-48
-5.71963e-49
-1.55283e-49
-2.60494e-50
1.31168e-51
3.15959e-51
1.50594e-51
4.75925e-52
1.02185e-52
7.57044e-54
-5.69387e-54
-3.59542e-54
-1.2912e-54
-3.18988e-55
-4.14834e-56
8.47645e-57
8.02891e-57
3.22468e-57
8.76032e-58
1.36865e-58
-9.15058e-60
)
;

boundaryField
{
    sides
    {
        type            zeroGradient;
    }
    empty
    {
        type            empty;
    }
}


// ************************************************************************* //
