/*--------------------------------*- C++ -*----------------------------------*\
| =========                 |                                                 |
| \\      /  F ield         | OpenFOAM: The Open Source CFD Toolbox           |
|  \\    /   O peration     | Version:  2312                                  |
|   \\  /    A nd           | Website:  www.openfoam.com                      |
|    \\/     M anipulation  |                                                 |
\*---------------------------------------------------------------------------*/
FoamFile
{
    version     2.0;
    format      ascii;
    arch        "LSB;label=32;scalar=64";
    class       volScalarField;
    location    "1.8";
    object      T;
}
// * * * * * * * * * * * * * * * * * * * * * * * * * * * * * * * * * * * * * //

dimensions      [0 0 0 1 0 0 0];

internalField   nonuniform List<scalar> 
1000
(
4.12026e-149
1.16363e-148
4.09279e-148
1.46585e-147
5.24979e-147
1.87742e-146
6.70343e-146
2.38971e-145
8.50558e-145
3.02253e-144
1.07237e-143
3.79862e-143
1.34342e-142
4.74348e-142
1.67219e-141
5.88536e-141
2.06804e-140
7.25505e-140
2.54107e-139
8.88559e-139
3.10204e-138
1.08118e-137
3.76217e-137
1.30697e-136
4.53289e-136
1.56953e-135
5.42559e-135
1.87242e-134
6.45118e-134
2.21897e-133
7.61972e-133
2.61216e-132
8.93992e-132
3.05448e-131
1.04186e-130
3.54772e-130
1.20602e-129
4.09281e-129
1.3866e-128
4.68966e-128
1.5834e-127
5.33698e-127
1.79579e-126
6.03211e-126
2.02272e-125
6.77095e-125
2.26263e-124
7.54784e-124
2.51349e-123
8.35553e-123
2.77276e-122
9.18522e-122
3.03742e-121
1.00266e-120
3.304e-120
1.08682e-119
3.56864e-119
1.16971e-118
3.8272e-118
1.24999e-117
4.07529e-117
1.32626e-116
4.30845e-116
1.3971e-115
4.52223e-115
1.46114e-114
4.71238e-114
1.51705e-113
4.87492e-113
1.56366e-112
5.00634e-112
1.59993e-111
5.10368e-111
1.62504e-110
5.16465e-110
1.63837e-109
5.18773e-109
1.63958e-108
5.17223e-108
1.62858e-107
5.1183e-107
1.60556e-106
5.02698e-106
1.57097e-105
4.90009e-105
1.52552e-104
4.74026e-104
1.47014e-103
4.55077e-103
1.40598e-102
4.33546e-102
1.33431e-101
4.09863e-101
1.25655e-100
3.84483e-100
1.17417e-99
3.57878e-99
1.08866e-98
3.30518e-98
1.00149e-97
3.02859e-97
9.14068e-97
2.75332e-96
8.27697e-96
2.48326e-95
7.43546e-95
2.2219e-94
6.62629e-94
1.97217e-93
5.8579e-93
1.73645e-92
5.13694e-92
1.51658e-91
4.46829e-91
1.31381e-90
3.85509e-90
1.12888e-89
3.29888e-89
9.62035e-89
2.79975e-88
8.13105e-88
2.35653e-87
6.81548e-87
1.96704e-86
5.66527e-86
1.62824e-85
4.66985e-85
1.33651e-84
3.81701e-84
1.08781e-83
3.09359e-83
8.77904e-83
2.48602e-82
7.02476e-82
1.98074e-81
5.573e-81
1.56464e-80
4.3833e-80
1.22531e-79
3.4178e-79
9.51265e-79
2.64185e-78
7.32088e-78
2.02425e-77
5.58484e-77
1.53744e-76
4.22304e-76
1.15741e-75
3.16508e-75
8.63603e-75
2.35111e-74
6.38642e-74
1.73088e-73
4.68055e-73
1.26284e-72
3.39948e-72
9.13047e-72
2.44672e-71
6.54162e-71
1.74498e-70
4.6441e-70
1.23314e-69
3.2668e-69
8.63433e-69
2.27682e-68
5.98987e-68
1.57215e-67
4.11678e-67
1.07548e-66
2.80303e-66
7.28838e-66
1.89064e-65
4.8928e-65
1.26321e-64
3.25357e-64
8.36006e-64
2.14299e-63
5.48009e-63
1.39801e-62
3.55785e-62
9.03263e-62
2.28764e-61
5.77971e-61
1.45669e-60
3.6624e-60
9.18545e-60
2.2981e-59
5.73545e-59
1.42789e-58
3.54605e-58
8.78452e-58
2.17075e-57
5.3508e-57
1.31565e-56
3.22681e-56
7.89428e-56
1.92645e-55
4.68925e-55
1.13854e-54
2.75733e-54
6.66074e-54
1.60489e-53
3.85706e-53
9.24595e-53
2.21069e-52
5.27207e-52
1.25404e-51
2.97517e-51
7.04014e-51
1.66157e-50
3.91126e-50
9.18283e-50
2.15027e-49
5.02184e-49
1.16973e-48
2.7174e-48
6.29603e-48
1.45486e-47
3.35287e-47
7.70629e-47
1.76647e-46
4.03829e-46
9.20693e-46
2.09341e-45
4.74695e-45
1.07347e-44
2.42092e-44
5.44478e-44
1.2212e-43
2.73149e-43
6.09272e-43
1.35525e-42
3.00625e-42
6.64998e-42
1.46691e-41
3.22679e-41
7.07817e-41
1.54828e-40
3.37715e-40
7.34557e-40
1.59319e-39
3.44569e-39
7.43098e-39
1.59799e-38
3.42656e-38
7.32647e-38
1.562e-37
3.32055e-37
7.03853e-37
1.48762e-36
3.13502e-36
6.58747e-36
1.38015e-35
2.8831e-35
6.00502e-35
1.24706e-34
2.58212e-34
5.33063e-34
1.09721e-33
2.25166e-33
4.60702e-33
9.39799e-33
1.91137e-32
3.87568e-32
7.83498e-32
1.57911e-31
3.17299e-31
6.35629e-31
1.26944e-30
2.52751e-30
5.01696e-30
9.92781e-30
1.95851e-29
3.85174e-29
7.55164e-29
1.47597e-28
2.8758e-28
5.58579e-28
1.08156e-27
2.08763e-27
4.01688e-27
7.70469e-27
1.47315e-26
2.80777e-26
5.33454e-26
1.01029e-25
1.90726e-25
3.58907e-25
6.73224e-25
1.25875e-24
2.34594e-24
4.35804e-24
8.06968e-24
1.4894e-23
2.73999e-23
5.02421e-23
9.1826e-23
1.67278e-22
3.03725e-22
5.49657e-22
9.9144e-22
1.78239e-21
3.1937e-21
5.7035e-21
1.01517e-20
1.80087e-20
3.18397e-20
5.61044e-20
9.85284e-20
1.72448e-19
3.00806e-19
5.22927e-19
9.05979e-19
1.56428e-18
2.69171e-18
4.61589e-18
7.88846e-18
1.34349e-17
2.28024e-17
3.8568e-17
6.50084e-17
1.09195e-16
1.82781e-16
3.04889e-16
5.06801e-16
8.39486e-16
1.38569e-15
2.27925e-15
3.73585e-15
6.10173e-15
9.93074e-15
1.61054e-14
2.60267e-14
4.19103e-14
6.72472e-14
1.07517e-13
1.71287e-13
2.71904e-13
4.30076e-13
6.77816e-13
1.06442e-12
1.66549e-12
2.59658e-12
4.03352e-12
6.24294e-12
9.6275e-12
1.47929e-11
2.26469e-11
3.4544e-11
5.24983e-11
7.9492e-11
1.19923e-10
1.80254e-10
2.69937e-10
4.02749e-10
5.98687e-10
8.86655e-10
1.30827e-09
1.9232e-09
2.81665e-09
4.10982e-09
5.97434e-09
8.65233e-09
1.24839e-08
1.79448e-08
2.56977e-08
3.66622e-08
5.21084e-08
7.37837e-08
1.04082e-07
1.46267e-07
2.04775e-07
2.85604e-07
3.9683e-07
5.49285e-07
7.57428e-07
1.04048e-06
1.42389e-06
1.94118e-06
2.63633e-06
3.56679e-06
4.80728e-06
6.45451e-06
8.63313e-06
1.15031e-05
1.52686e-05
2.01894e-05
2.65941e-05
3.48967e-05
4.56165e-05
5.94013e-05
7.70562e-05
9.95763e-05
0.000128186
0.000164385
0.000210002
0.000267252
0.00033881
0.000427889
0.000538326
0.000674685
0.000842362
0.00104771
0.00129815
0.00160235
0.00197032
0.00241361
0.00294544
0.00358087
0.00433694
0.00523286
0.00629011
0.00753258
0.00898668
0.0106814
0.0126484
0.014922
0.017539
0.0205388
0.0239631
0.0278557
0.0322621
0.0372296
0.042806
0.0490401
0.0559802
0.0636741
0.0721679
0.0815055
0.091728
0.102872
0.11497
0.128049
0.142129
0.157222
0.173335
0.190462
0.208593
0.227705
0.247767
0.268736
0.290563
0.313187
0.336537
0.360537
0.3851
0.410134
0.43554
0.461215
0.487054
0.512946
0.538785
0.56446
0.589866
0.6149
0.639463
0.663463
0.686813
0.709437
0.731264
0.752233
0.772295
0.791407
0.809538
0.826665
0.842778
0.857871
0.871951
0.88503
0.897128
0.908272
0.918494
0.927832
0.936326
0.944019
0.950959
0.957193
0.962769
0.967736
0.972142
0.976033
0.979456
0.982455
0.985069
0.98734
0.989303
0.990993
0.992441
0.993675
0.994722
0.995604
0.996342
0.996955
0.997458
0.997865
0.998188
0.998435
0.998613
0.99873
0.998787
0.998787
0.99873
0.998613
0.998435
0.998188
0.997865
0.997458
0.996955
0.996342
0.995604
0.994722
0.993675
0.992441
0.990993
0.989303
0.98734
0.985069
0.982455
0.979456
0.976033
0.972142
0.967736
0.962769
0.957193
0.950959
0.944019
0.936326
0.927832
0.918494
0.908272
0.897128
0.88503
0.871951
0.857871
0.842778
0.826665
0.809538
0.791407
0.772295
0.752233
0.731264
0.709437
0.686813
0.663463
0.639463
0.6149
0.589866
0.56446
0.538785
0.512946
0.487054
0.461215
0.43554
0.410134
0.3851
0.360537
0.336537
0.313187
0.290563
0.268736
0.247767
0.227705
0.208593
0.190462
0.173335
0.157222
0.142129
0.128049
0.11497
0.102872
0.091728
0.0815055
0.0721679
0.0636741
0.0559802
0.0490401
0.042806
0.0372296
0.0322621
0.0278557
0.0239631
0.0205388
0.017539
0.014922
0.0126484
0.0106814
0.00898668
0.00753258
0.00629011
0.00523286
0.00433694
0.00358087
0.00294544
0.00241361
0.00197032
0.00160235
0.00129815
0.00104771
0.000842362
0.000674685
0.000538326
0.000427889
0.00033881
0.000267252
0.000210002
0.000164385
0.000128186
9.95763e-05
7.70562e-05
5.94013e-05
4.56165e-05
3.48967e-05
2.65941e-05
2.01894e-05
1.52686e-05
1.15031e-05
8.63313e-06
6.45451e-06
4.80728e-06
3.56679e-06
2.63633e-06
1.94118e-06
1.42389e-06
1.04048e-06
7.57428e-07
5.49285e-07
3.9683e-07
2.85604e-07
2.04775e-07
1.46267e-07
1.04082e-07
7.37837e-08
5.21084e-08
3.66622e-08
2.56977e-08
1.79448e-08
1.24839e-08
8.65233e-09
5.97434e-09
4.10982e-09
2.81665e-09
1.9232e-09
1.30827e-09
8.86655e-10
5.98687e-10
4.02749e-10
2.69937e-10
1.80254e-10
1.19923e-10
7.9492e-11
5.24983e-11
3.4544e-11
2.26469e-11
1.47929e-11
9.6275e-12
6.24294e-12
4.03352e-12
2.59658e-12
1.66549e-12
1.06442e-12
6.77816e-13
4.30076e-13
2.71904e-13
1.71287e-13
1.07517e-13
6.72472e-14
4.19103e-14
2.60267e-14
1.61054e-14
9.93074e-15
6.10173e-15
3.73585e-15
2.27925e-15
1.38569e-15
8.39486e-16
5.06801e-16
3.04889e-16
1.82781e-16
1.09195e-16
6.50084e-17
3.8568e-17
2.28024e-17
1.34349e-17
7.88846e-18
4.61589e-18
2.69171e-18
1.56428e-18
9.05979e-19
5.22927e-19
3.00806e-19
1.72448e-19
9.85284e-20
5.61044e-20
3.18397e-20
1.80087e-20
1.01517e-20
5.7035e-21
3.1937e-21
1.78239e-21
9.9144e-22
5.49657e-22
3.03725e-22
1.67278e-22
9.1826e-23
5.02421e-23
2.73999e-23
1.4894e-23
8.06968e-24
4.35804e-24
2.34594e-24
1.25875e-24
6.73224e-25
3.58907e-25
1.90726e-25
1.01029e-25
5.33454e-26
2.80777e-26
1.47315e-26
7.70469e-27
4.01688e-27
2.08763e-27
1.08156e-27
5.58579e-28
2.8758e-28
1.47597e-28
7.55164e-29
3.85174e-29
1.95851e-29
9.92781e-30
5.01696e-30
2.52751e-30
1.26944e-30
6.35629e-31
3.17299e-31
1.57911e-31
7.83498e-32
3.87568e-32
1.91137e-32
9.39799e-33
4.60702e-33
2.25166e-33
1.09721e-33
5.33063e-34
2.58212e-34
1.24706e-34
6.00502e-35
2.8831e-35
1.38015e-35
6.58747e-36
3.13502e-36
1.48762e-36
7.03853e-37
3.32055e-37
1.562e-37
7.32647e-38
3.42656e-38
1.59799e-38
7.43098e-39
3.44569e-39
1.59319e-39
7.34557e-40
3.37715e-40
1.54828e-40
7.07817e-41
3.22679e-41
1.46691e-41
6.64998e-42
3.00625e-42
1.35525e-42
6.09272e-43
2.73149e-43
1.2212e-43
5.44478e-44
2.42092e-44
1.07347e-44
4.74695e-45
2.09341e-45
9.20693e-46
4.03829e-46
1.76647e-46
7.70629e-47
3.35287e-47
1.45486e-47
6.29603e-48
2.7174e-48
1.16973e-48
5.02184e-49
2.15027e-49
9.18283e-50
3.91126e-50
1.66157e-50
7.04014e-51
2.97517e-51
1.25404e-51
5.27207e-52
2.21069e-52
9.24595e-53
3.85706e-53
1.60489e-53
6.66074e-54
2.75733e-54
1.13854e-54
4.68925e-55
1.92645e-55
7.89428e-56
3.22681e-56
1.31565e-56
5.3508e-57
2.17075e-57
8.78452e-58
3.54605e-58
1.42789e-58
5.73545e-59
2.2981e-59
9.18545e-60
3.6624e-60
1.45669e-60
5.77971e-61
2.28764e-61
9.03263e-62
3.55785e-62
1.39801e-62
5.48009e-63
2.14299e-63
8.36006e-64
3.25357e-64
1.26321e-64
4.8928e-65
1.89064e-65
7.28838e-66
2.80303e-66
1.07548e-66
4.11678e-67
1.57215e-67
5.98987e-68
2.27682e-68
8.63433e-69
3.2668e-69
1.23314e-69
4.6441e-70
1.74498e-70
6.54162e-71
2.44672e-71
9.13047e-72
3.39948e-72
1.26284e-72
4.68055e-73
1.73088e-73
6.38642e-74
2.35111e-74
8.63603e-75
3.16508e-75
1.15741e-75
4.22304e-76
1.53744e-76
5.58484e-77
2.02425e-77
7.32088e-78
2.64185e-78
9.51265e-79
3.4178e-79
1.22531e-79
4.3833e-80
1.56464e-80
5.573e-81
1.98074e-81
7.02476e-82
2.48602e-82
8.77904e-83
3.09359e-83
1.08781e-83
3.81701e-84
1.33651e-84
4.66985e-85
1.62824e-85
5.66527e-86
1.96704e-86
6.81548e-87
2.35653e-87
8.13105e-88
2.79975e-88
9.62035e-89
3.29888e-89
1.12888e-89
3.85509e-90
1.31381e-90
4.46829e-91
1.51658e-91
5.13694e-92
1.73645e-92
5.8579e-93
1.97217e-93
6.62629e-94
2.2219e-94
7.43546e-95
2.48326e-95
8.27697e-96
2.75332e-96
9.14068e-97
3.02859e-97
1.00149e-97
3.30518e-98
1.08866e-98
3.57878e-99
1.17417e-99
3.84483e-100
1.25655e-100
4.09863e-101
1.33431e-101
4.33546e-102
1.40598e-102
4.55077e-103
1.47014e-103
4.74026e-104
1.52552e-104
4.90009e-105
1.57097e-105
5.02698e-106
1.60556e-106
5.1183e-107
1.62858e-107
5.17223e-108
1.63958e-108
5.18773e-109
1.63837e-109
5.16465e-110
1.62504e-110
5.10368e-111
1.59993e-111
5.00634e-112
1.56366e-112
4.87492e-113
1.51705e-113
4.71238e-114
1.46114e-114
4.52223e-115
1.3971e-115
4.30845e-116
1.32626e-116
4.07529e-117
1.24999e-117
3.8272e-118
1.16971e-118
3.56864e-119
1.08682e-119
3.304e-120
1.00266e-120
3.03742e-121
9.18522e-122
2.77276e-122
8.35553e-123
2.51349e-123
7.54784e-124
2.26263e-124
6.77095e-125
2.02272e-125
6.03211e-126
1.79579e-126
5.33698e-127
1.5834e-127
4.68966e-128
1.3866e-128
4.09281e-129
1.20602e-129
3.54772e-130
1.04186e-130
3.05448e-131
8.93992e-132
2.61216e-132
7.61972e-133
2.21897e-133
6.45118e-134
1.87242e-134
5.42559e-135
1.56953e-135
4.53289e-136
1.30697e-136
3.76217e-137
1.08118e-137
3.10204e-138
8.88559e-139
2.54107e-139
7.25505e-140
2.06804e-140
5.88536e-141
1.67219e-141
4.74348e-142
1.34342e-142
3.79862e-143
1.07237e-143
3.02253e-144
8.50558e-145
2.38971e-145
6.70343e-146
1.87742e-146
5.24979e-147
1.46585e-147
4.09279e-148
1.16363e-148
4.12026e-149
)
;

boundaryField
{
    sides
    {
        type            zeroGradient;
    }
    empty
    {
        type            empty;
    }
}


// ************************************************************************* //
