/*--------------------------------*- C++ -*----------------------------------*\
| =========                 |                                                 |
| \\      /  F ield         | OpenFOAM: The Open Source CFD Toolbox           |
|  \\    /   O peration     | Version:  2312                                  |
|   \\  /    A nd           | Website:  www.openfoam.com                      |
|    \\/     M anipulation  |                                                 |
\*---------------------------------------------------------------------------*/
FoamFile
{
    version     2.0;
    format      ascii;
    arch        "LSB;label=32;scalar=64";
    class       volScalarField;
    location    "4";
    object      T;
}
// * * * * * * * * * * * * * * * * * * * * * * * * * * * * * * * * * * * * * //

dimensions      [0 0 0 1 0 0 0];

internalField   nonuniform List<scalar> 
1000
(
9.99275e-80
1.56914e-79
3.05649e-79
6.32327e-79
1.32567e-78
2.78479e-78
5.84654e-78
1.22604e-77
2.56775e-77
5.37069e-77
1.12185e-76
2.34024e-76
4.87542e-76
1.01434e-75
2.10757e-75
4.3732e-75
9.06227e-75
1.87541e-74
3.8759e-74
7.99961e-74
1.64886e-73
3.39402e-73
6.9769e-73
1.43227e-72
2.93633e-72
6.01172e-72
1.22915e-71
2.50973e-71
5.11752e-71
1.04209e-70
2.11914e-70
4.30354e-70
8.72773e-70
1.76761e-69
3.57502e-69
7.22069e-69
1.45642e-68
2.93358e-68
5.90088e-68
1.18533e-67
2.37775e-67
4.76318e-67
9.52862e-67
1.90355e-66
3.79752e-66
7.56549e-66
1.50513e-65
2.99026e-65
5.93255e-65
1.17537e-64
2.32542e-64
4.59436e-64
9.06452e-64
1.78591e-63
3.51373e-63
6.90351e-63
1.35445e-62
2.6537e-62
5.19193e-62
1.01437e-61
1.97904e-61
3.85569e-61
7.50133e-61
1.45734e-60
2.8273e-60
5.47732e-60
1.05962e-59
2.047e-59
3.94882e-59
7.6068e-59
1.46325e-58
2.81072e-58
5.39136e-58
1.03266e-57
1.97515e-57
3.77241e-57
7.19477e-57
1.37023e-56
2.60582e-56
4.9485e-56
9.38378e-56
1.77687e-55
3.35977e-55
6.3436e-55
1.19601e-54
2.25168e-54
4.233e-54
7.94622e-54
1.48951e-53
2.78801e-53
5.21092e-53
9.72526e-53
1.81241e-52
3.37268e-52
6.26703e-52
1.16282e-51
2.1544e-51
3.98569e-51
7.36282e-51
1.35815e-50
2.50155e-50
4.6008e-50
8.44921e-50
1.54938e-49
2.837e-49
5.18701e-49
9.4696e-49
1.72624e-48
3.14216e-48
5.71096e-48
1.03644e-47
1.87816e-47
3.39838e-47
6.13994e-47
1.10766e-46
1.99526e-46
3.58875e-46
6.44518e-46
1.15578e-45
2.06949e-45
3.69996e-45
6.60507e-45
1.17734e-44
2.09543e-44
3.7238e-44
6.60759e-44
1.17069e-43
2.07102e-43
3.65819e-43
6.45191e-43
1.13619e-42
1.99779e-42
3.50743e-42
6.14845e-42
1.07616e-41
1.88073e-41
3.28179e-41
5.71781e-41
9.94677e-41
1.7277e-40
2.9963e-40
5.18842e-40
8.97048e-40
1.54855e-39
2.66911e-39
4.59342e-39
7.89284e-39
1.35412e-38
2.31958e-38
3.96723e-38
6.7747e-38
1.15509e-37
1.96638e-37
3.34228e-37
5.67205e-37
9.61077e-37
1.62592e-36
2.74636e-36
4.63167e-36
7.79896e-36
1.31115e-35
2.20084e-35
3.68841e-35
6.17173e-35
1.03107e-34
1.71984e-34
2.86417e-34
4.76238e-34
7.90609e-34
1.31042e-33
2.16857e-33
3.58298e-33
5.91052e-33
9.73457e-33
1.60072e-32
2.62799e-32
4.30762e-32
7.04949e-32
1.15182e-31
1.87895e-31
3.06021e-31
4.97613e-31
8.07857e-31
1.30942e-30
2.11898e-30
3.42353e-30
5.52233e-30
8.89344e-30
1.42994e-29
2.29542e-29
3.67878e-29
5.88632e-29
9.40328e-29
1.49972e-28
2.38802e-28
3.79628e-28
6.02522e-28
9.54729e-28
1.51036e-27
2.38545e-27
3.76143e-27
5.92142e-27
9.30654e-27
1.46029e-26
2.2876e-26
3.57772e-26
5.58626e-26
8.70807e-26
1.35522e-25
2.10562e-25
3.26616e-25
5.05798e-25
7.81989e-25
1.207e-24
1.85992e-24
2.8613e-24
4.39454e-24
6.73819e-24
1.03146e-23
1.57631e-23
2.40496e-23
3.66312e-23
5.57021e-23
8.45608e-23
1.28157e-22
1.93905e-22
2.92895e-22
4.41681e-22
6.64933e-22
9.99355e-22
1.49946e-21
2.24605e-21
3.35874e-21
5.01421e-21
7.47307e-21
1.1119e-20
1.65158e-20
2.44907e-20
3.62552e-20
5.35804e-20
7.90511e-20
1.16433e-19
1.71202e-19
2.51307e-19
3.6827e-19
5.38754e-19
7.86823e-19
1.14717e-18
1.66969e-18
2.4261e-18
3.51918e-18
5.09605e-18
7.36691e-18
1.06315e-17
1.53167e-17
2.20289e-17
3.16283e-17
4.53333e-17
6.48656e-17
9.26546e-17
1.32122e-16
1.88078e-16
2.67273e-16
3.79162e-16
5.36968e-16
7.59145e-16
1.0714e-15
1.5095e-15
2.12307e-15
2.98089e-15
4.1781e-15
5.84602e-15
8.16566e-15
1.1386e-14
1.58489e-14
2.20229e-14
3.05491e-14
4.23028e-14
5.84771e-14
8.06953e-14
1.11162e-13
1.52866e-13
2.0985e-13
2.87575e-13
3.93403e-13
5.37238e-13
7.32386e-13
9.96679e-13
1.35398e-12
1.83617e-12
2.48573e-12
3.35919e-12
4.53166e-12
6.10268e-12
8.20396e-12
1.10095e-11
1.47485e-11
1.97227e-11
2.63285e-11
3.50851e-11
4.66721e-11
6.19769e-11
8.21559e-11
1.08714e-10
1.43604e-10
1.89359e-10
2.49253e-10
3.27514e-10
4.29592e-10
5.62492e-10
7.3521e-10
9.5927e-10
1.24941e-09
1.62443e-09
2.10831e-09
2.73148e-09
3.53262e-09
4.56066e-09
5.87748e-09
7.56115e-09
9.70994e-09
1.24474e-08
1.59283e-08
2.03468e-08
2.59449e-08
3.30248e-08
4.19623e-08
5.32242e-08
6.73893e-08
8.51733e-08
1.0746e-07
1.35338e-07
1.70148e-07
2.13531e-07
2.67502e-07
3.34521e-07
4.17591e-07
5.20365e-07
6.47285e-07
8.03736e-07
9.96234e-07
1.23265e-06
1.52247e-06
1.8771e-06
2.31024e-06
2.8383e-06
3.48088e-06
4.26138e-06
5.20766e-06
6.35281e-06
7.73606e-06
9.40384e-06
1.1411e-05
1.3822e-05
1.67128e-05
2.01726e-05
2.43056e-05
2.92336e-05
3.50987e-05
4.20661e-05
5.03278e-05
6.01058e-05
7.1657e-05
8.52777e-05
0.000101309
0.000120141
0.000142225
0.000168071
0.000198265
0.000233473
0.000274451
0.000322056
0.000377255
0.000441142
0.000514945
0.000600046
0.000697989
0.000810502
0.000939511
0.00108716
0.00125582
0.00144813
0.00166699
0.0019156
0.00219747
0.00251646
0.00287678
0.00328302
0.00374017
0.00425366
0.00482933
0.00547351
0.006193
0.00699509
0.00788759
0.00887882
0.00997764
0.0111934
0.0125361
0.0140162
0.0156445
0.0174327
0.0193928
0.0215371
0.0238786
0.0264306
0.0292068
0.0322212
0.0354881
0.0390219
0.0428373
0.0469488
0.0513713
0.0561191
0.0612065
0.0666477
0.0724562
0.0786451
0.0852269
0.0922132
0.099615
0.107442
0.115703
0.124406
0.133557
0.143161
0.153221
0.163739
0.174716
0.186148
0.198033
0.210366
0.223139
0.236342
0.249965
0.263993
0.278413
0.293206
0.308353
0.323835
0.339627
0.355707
0.372047
0.388622
0.405401
0.422357
0.439457
0.456672
0.473967
0.491312
0.508674
0.526018
0.543313
0.560525
0.577624
0.594576
0.611352
0.627922
0.644257
0.66033
0.676114
0.691586
0.706722
0.721502
0.735905
0.749915
0.763516
0.776693
0.789436
0.801733
0.813577
0.824962
0.835883
0.846338
0.856324
0.865843
0.874896
0.883486
0.891618
0.899298
0.906531
0.913325
0.919688
0.925628
0.931155
0.936277
0.941004
0.945346
0.949311
0.952909
0.956149
0.959038
0.961586
0.963798
0.965682
0.967243
0.968485
0.969414
0.970031
0.970339
0.970339
0.970031
0.969414
0.968485
0.967243
0.965682
0.963798
0.961586
0.959038
0.956149
0.952909
0.949311
0.945346
0.941004
0.936277
0.931155
0.925628
0.919688
0.913325
0.906531
0.899298
0.891618
0.883486
0.874896
0.865843
0.856324
0.846338
0.835883
0.824962
0.813577
0.801733
0.789436
0.776693
0.763516
0.749915
0.735905
0.721502
0.706722
0.691586
0.676114
0.66033
0.644257
0.627922
0.611352
0.594576
0.577624
0.560525
0.543313
0.526018
0.508674
0.491312
0.473967
0.456672
0.439457
0.422357
0.405401
0.388622
0.372047
0.355707
0.339627
0.323835
0.308353
0.293206
0.278413
0.263993
0.249965
0.236342
0.223139
0.210366
0.198033
0.186148
0.174716
0.163739
0.153221
0.143161
0.133557
0.124406
0.115703
0.107442
0.099615
0.0922132
0.0852269
0.0786451
0.0724562
0.0666477
0.0612065
0.0561191
0.0513713
0.0469488
0.0428373
0.0390219
0.0354881
0.0322212
0.0292068
0.0264306
0.0238786
0.0215371
0.0193928
0.0174327
0.0156445
0.0140162
0.0125361
0.0111934
0.00997764
0.00887882
0.00788759
0.00699509
0.006193
0.00547351
0.00482933
0.00425366
0.00374017
0.00328302
0.00287678
0.00251646
0.00219747
0.0019156
0.00166699
0.00144813
0.00125582
0.00108716
0.000939511
0.000810502
0.000697989
0.000600046
0.000514945
0.000441142
0.000377255
0.000322056
0.000274451
0.000233473
0.000198265
0.000168071
0.000142225
0.000120141
0.000101309
8.52777e-05
7.1657e-05
6.01058e-05
5.03278e-05
4.20661e-05
3.50987e-05
2.92336e-05
2.43056e-05
2.01726e-05
1.67128e-05
1.3822e-05
1.1411e-05
9.40384e-06
7.73606e-06
6.35281e-06
5.20766e-06
4.26138e-06
3.48088e-06
2.8383e-06
2.31024e-06
1.8771e-06
1.52247e-06
1.23265e-06
9.96234e-07
8.03736e-07
6.47285e-07
5.20365e-07
4.17591e-07
3.34521e-07
2.67502e-07
2.13531e-07
1.70148e-07
1.35338e-07
1.0746e-07
8.51733e-08
6.73893e-08
5.32242e-08
4.19623e-08
3.30248e-08
2.59449e-08
2.03468e-08
1.59283e-08
1.24474e-08
9.70994e-09
7.56115e-09
5.87748e-09
4.56066e-09
3.53262e-09
2.73148e-09
2.10831e-09
1.62443e-09
1.24941e-09
9.5927e-10
7.3521e-10
5.62492e-10
4.29592e-10
3.27514e-10
2.49253e-10
1.89359e-10
1.43604e-10
1.08714e-10
8.21559e-11
6.19769e-11
4.66721e-11
3.50851e-11
2.63285e-11
1.97227e-11
1.47485e-11
1.10095e-11
8.20396e-12
6.10268e-12
4.53166e-12
3.35919e-12
2.48573e-12
1.83617e-12
1.35398e-12
9.96679e-13
7.32386e-13
5.37238e-13
3.93403e-13
2.87575e-13
2.0985e-13
1.52866e-13
1.11162e-13
8.06953e-14
5.84771e-14
4.23028e-14
3.05491e-14
2.20229e-14
1.58489e-14
1.1386e-14
8.16566e-15
5.84602e-15
4.1781e-15
2.98089e-15
2.12307e-15
1.5095e-15
1.0714e-15
7.59145e-16
5.36968e-16
3.79162e-16
2.67273e-16
1.88078e-16
1.32122e-16
9.26546e-17
6.48656e-17
4.53333e-17
3.16283e-17
2.20289e-17
1.53167e-17
1.06315e-17
7.36691e-18
5.09605e-18
3.51918e-18
2.4261e-18
1.66969e-18
1.14717e-18
7.86823e-19
5.38754e-19
3.6827e-19
2.51307e-19
1.71202e-19
1.16433e-19
7.90511e-20
5.35804e-20
3.62552e-20
2.44907e-20
1.65158e-20
1.1119e-20
7.47307e-21
5.01421e-21
3.35874e-21
2.24605e-21
1.49946e-21
9.99355e-22
6.64933e-22
4.41681e-22
2.92895e-22
1.93905e-22
1.28157e-22
8.45608e-23
5.57021e-23
3.66312e-23
2.40496e-23
1.57631e-23
1.03146e-23
6.73819e-24
4.39454e-24
2.8613e-24
1.85992e-24
1.207e-24
7.81989e-25
5.05798e-25
3.26616e-25
2.10562e-25
1.35522e-25
8.70807e-26
5.58626e-26
3.57772e-26
2.2876e-26
1.46029e-26
9.30654e-27
5.92142e-27
3.76143e-27
2.38545e-27
1.51036e-27
9.54729e-28
6.02522e-28
3.79628e-28
2.38802e-28
1.49972e-28
9.40328e-29
5.88632e-29
3.67878e-29
2.29542e-29
1.42994e-29
8.89344e-30
5.52233e-30
3.42353e-30
2.11898e-30
1.30942e-30
8.07857e-31
4.97613e-31
3.06021e-31
1.87895e-31
1.15182e-31
7.04949e-32
4.30762e-32
2.62799e-32
1.60072e-32
9.73457e-33
5.91052e-33
3.58298e-33
2.16857e-33
1.31042e-33
7.90609e-34
4.76238e-34
2.86417e-34
1.71984e-34
1.03107e-34
6.17173e-35
3.68841e-35
2.20084e-35
1.31115e-35
7.79896e-36
4.63167e-36
2.74636e-36
1.62592e-36
9.61077e-37
5.67205e-37
3.34228e-37
1.96638e-37
1.15509e-37
6.7747e-38
3.96723e-38
2.31958e-38
1.35412e-38
7.89284e-39
4.59342e-39
2.66911e-39
1.54855e-39
8.97048e-40
5.18842e-40
2.9963e-40
1.7277e-40
9.94677e-41
5.71781e-41
3.28179e-41
1.88073e-41
1.07616e-41
6.14845e-42
3.50743e-42
1.99779e-42
1.13619e-42
6.45191e-43
3.65819e-43
2.07102e-43
1.17069e-43
6.60759e-44
3.7238e-44
2.09543e-44
1.17734e-44
6.60507e-45
3.69996e-45
2.06949e-45
1.15578e-45
6.44518e-46
3.58875e-46
1.99526e-46
1.10766e-46
6.13994e-47
3.39838e-47
1.87816e-47
1.03644e-47
5.71096e-48
3.14216e-48
1.72624e-48
9.4696e-49
5.18701e-49
2.837e-49
1.54938e-49
8.44921e-50
4.6008e-50
2.50155e-50
1.35815e-50
7.36282e-51
3.98569e-51
2.1544e-51
1.16282e-51
6.26703e-52
3.37268e-52
1.81241e-52
9.72526e-53
5.21092e-53
2.78801e-53
1.48951e-53
7.94622e-54
4.233e-54
2.25168e-54
1.19601e-54
6.3436e-55
3.35977e-55
1.77687e-55
9.38378e-56
4.9485e-56
2.60582e-56
1.37023e-56
7.19477e-57
3.77241e-57
1.97515e-57
1.03266e-57
5.39136e-58
2.81072e-58
1.46325e-58
7.6068e-59
3.94882e-59
2.047e-59
1.05962e-59
5.47732e-60
2.8273e-60
1.45734e-60
7.50133e-61
3.85569e-61
1.97904e-61
1.01437e-61
5.19193e-62
2.6537e-62
1.35445e-62
6.90351e-63
3.51373e-63
1.78591e-63
9.06452e-64
4.59436e-64
2.32542e-64
1.17537e-64
5.93255e-65
2.99026e-65
1.50513e-65
7.56549e-66
3.79752e-66
1.90355e-66
9.52862e-67
4.76318e-67
2.37775e-67
1.18533e-67
5.90088e-68
2.93358e-68
1.45642e-68
7.22069e-69
3.57502e-69
1.76761e-69
8.72773e-70
4.30354e-70
2.11914e-70
1.04209e-70
5.11752e-71
2.50973e-71
1.22915e-71
6.01172e-72
2.93633e-72
1.43227e-72
6.9769e-73
3.39402e-73
1.64886e-73
7.99961e-74
3.8759e-74
1.87541e-74
9.06227e-75
4.3732e-75
2.10757e-75
1.01434e-75
4.87542e-76
2.34024e-76
1.12185e-76
5.37069e-77
2.56775e-77
1.22604e-77
5.84654e-78
2.78479e-78
1.32567e-78
6.32327e-79
3.05649e-79
1.56914e-79
9.99275e-80
)
;

boundaryField
{
    sides
    {
        type            zeroGradient;
    }
    empty
    {
        type            empty;
    }
}


// ************************************************************************* //
