/*--------------------------------*- C++ -*----------------------------------*\
| =========                 |                                                 |
| \\      /  F ield         | OpenFOAM: The Open Source CFD Toolbox           |
|  \\    /   O peration     | Version:  2312                                  |
|   \\  /    A nd           | Website:  www.openfoam.com                      |
|    \\/     M anipulation  |                                                 |
\*---------------------------------------------------------------------------*/
FoamFile
{
    version     2.0;
    format      ascii;
    arch        "LSB;label=32;scalar=64";
    class       volScalarField;
    location    "0.6";
    object      T;
}
// * * * * * * * * * * * * * * * * * * * * * * * * * * * * * * * * * * * * * //

dimensions      [0 0 0 1 0 0 0];

internalField   nonuniform List<scalar> 
1000
(
2.031e-248
-1.67445e-247
1.20881e-246
-8.73384e-246
6.30013e-245
-4.53728e-244
3.26243e-243
-2.34199e-242
1.67852e-241
-1.20105e-240
8.58011e-240
-6.11948e-239
4.3574e-238
-3.09762e-237
2.19845e-236
-1.55773e-235
1.10192e-234
-7.78198e-234
5.4867e-233
-3.86199e-232
2.71387e-231
-1.90389e-230
1.33342e-229
-9.32325e-229
6.50784e-228
-4.53498e-227
3.15487e-226
-2.19105e-225
1.5191e-224
-1.05144e-223
7.26506e-223
-5.01134e-222
3.45084e-221
-2.3722e-220
1.62791e-219
-1.11522e-218
7.62677e-218
-5.20676e-217
3.54847e-216
-2.41411e-215
1.63952e-214
-1.11151e-213
7.52233e-213
-5.0819e-212
3.42716e-211
-2.30715e-210
1.55041e-209
-1.04003e-208
6.96424e-208
-4.65507e-207
3.106e-206
-2.0687e-205
1.37535e-204
-9.12733e-204
6.04632e-203
-3.99808e-202
2.63889e-201
-1.73861e-200
1.14338e-199
-7.50553e-199
4.91786e-198
-3.21641e-197
2.09974e-196
-1.36822e-195
8.89903e-195
-5.77724e-194
3.74359e-193
-2.42128e-192
1.5631e-191
-1.00719e-190
6.47769e-190
-4.15822e-189
2.66423e-188
-1.70377e-187
1.08748e-186
-6.92795e-186
4.40509e-185
-2.79558e-184
1.77073e-183
-1.11942e-182
7.06309e-182
-4.44787e-181
2.79553e-180
-1.75359e-179
1.09785e-178
-6.85968e-178
4.2777e-177
-2.66231e-176
1.65367e-175
-1.02512e-174
6.34216e-174
-3.9159e-173
2.413e-172
-1.48392e-171
9.10726e-171
-5.57813e-170
3.40965e-169
-2.07993e-168
1.2662e-167
-7.69253e-167
4.66386e-166
-2.82182e-165
1.7038e-164
-1.02662e-163
6.17301e-163
-3.70411e-162
2.21801e-161
-1.32536e-160
7.90305e-160
-4.70262e-159
2.79234e-158
-1.65454e-157
9.78279e-157
-5.77196e-156
3.39825e-155
-1.99644e-154
1.17037e-153
-6.84623e-153
3.99615e-152
-2.32749e-151
1.35266e-150
-7.84405e-150
4.53879e-149
-2.62051e-148
1.50964e-147
-8.67758e-147
4.97692e-146
-2.8481e-145
1.62622e-144
-9.26469e-144
5.26629e-143
-2.98675e-142
1.69009e-141
-9.54192e-141
5.37491e-140
-3.02074e-139
1.69379e-138
-9.47559e-138
5.28871e-137
-2.94502e-136
1.63612e-135
-9.06839e-135
5.01451e-134
-2.76634e-133
1.52251e-132
-8.35965e-132
4.57915e-131
-2.50234e-130
1.36418e-129
-7.41915e-129
4.02524e-128
-2.17862e-127
1.1763e-126
-6.33574e-126
3.40422e-125
-1.82462e-124
9.75576e-124
-5.20328e-123
2.76833e-122
-1.4692e-121
7.77781e-121
-4.10722e-120
2.16345e-119
-1.13671e-118
5.95737e-118
-3.11426e-117
1.62386e-116
-8.44555e-116
4.38119e-115
-2.26692e-114
1.16991e-113
-6.02204e-113
3.09172e-112
-1.58314e-111
8.08527e-111
-4.11836e-110
2.09219e-109
-1.06004e-108
5.35656e-108
-2.6995e-107
1.35678e-106
-6.80084e-106
3.39967e-105
-1.69483e-104
8.42612e-104
-4.17768e-103
2.06559e-102
-1.01847e-101
5.00781e-101
-2.45545e-100
1.2006e-99
-5.85382e-99
2.84611e-98
-1.37985e-97
6.6707e-97
-3.21563e-96
1.54565e-95
-7.40802e-95
3.54023e-94
-1.68692e-93
8.01467e-93
-3.79664e-92
1.79321e-91
-8.44446e-91
3.96478e-90
-1.85595e-89
8.66176e-89
-4.03027e-88
1.86958e-87
-8.6463e-87
3.98644e-86
-1.83233e-85
8.39614e-85
-3.83536e-84
1.74654e-83
-7.92843e-83
3.5878e-82
-1.61843e-81
7.27745e-81
-3.26194e-80
1.4574e-79
-6.49048e-79
2.88116e-78
-1.2748e-77
5.62207e-77
-2.47126e-76
1.08269e-75
-4.72766e-75
2.05749e-74
-8.92417e-74
3.85774e-73
-1.66197e-72
7.13562e-72
-3.05317e-71
1.30189e-70
-5.5321e-70
2.34257e-69
-9.88496e-69
4.1565e-68
-1.74157e-67
7.27127e-67
-3.02499e-66
1.25393e-65
-5.17908e-65
2.13133e-64
-8.73892e-64
3.56999e-63
-1.45301e-62
5.89187e-62
-2.38019e-61
9.57931e-61
-3.84071e-60
1.53403e-59
-6.10368e-59
2.41922e-58
-9.55153e-58
3.75644e-57
-1.47155e-56
5.74193e-56
-2.23159e-55
8.63843e-55
-3.33048e-54
1.27885e-53
-4.89063e-53
1.86264e-52
-7.06478e-52
2.66849e-51
-1.00373e-50
3.75957e-50
-1.40224e-49
5.20779e-49
-1.92584e-48
7.09104e-48
-2.59962e-47
9.48872e-47
-3.44817e-46
1.2475e-45
-4.49315e-45
1.61103e-44
-5.75025e-44
2.04308e-43
-7.22577e-43
2.54372e-42
-8.91307e-42
3.10843e-41
-1.07894e-40
3.72716e-40
-1.28135e-39
4.38384e-39
-1.49251e-38
5.05641e-38
-1.70455e-37
5.71751e-37
-1.90815e-36
6.33593e-36
-2.09306e-35
6.87875e-35
-2.24892e-34
7.31405e-34
-2.36614e-33
7.61379e-33
-2.43681e-32
7.75676e-32
-2.4556e-31
7.73093e-31
-2.42037e-30
7.53501e-30
-2.33248e-29
7.17892e-29
-2.19678e-28
6.68303e-28
-2.02115e-27
6.07623e-27
-1.81576e-26
5.39314e-26
-1.59206e-25
4.67075e-25
-1.36174e-24
3.94505e-24
-1.13562e-23
3.24796e-23
-9.22892e-23
2.6051e-22
-7.30465e-22
2.03444e-21
-5.62763e-21
1.546e-20
-4.21755e-20
1.14247e-19
-3.07273e-19
8.20472e-19
-2.17482e-18
5.7222e-18
-1.49432e-17
3.87277e-17
-9.95993e-17
2.54158e-16
-6.43452e-16
1.61603e-15
-4.02583e-15
9.94678e-15
-2.43715e-14
5.92106e-14
-1.4262e-13
3.40542e-13
-8.05955e-13
1.89034e-12
-4.39337e-12
1.01162e-11
-2.30746e-11
5.21288e-11
-1.16621e-10
2.58317e-10
-5.66413e-10
1.22923e-09
-2.6398e-09
5.6086e-09
-1.17867e-08
2.44958e-08
-5.03324e-08
1.02225e-07
-2.05164e-07
4.0679e-07
-7.96596e-07
1.54019e-06
-2.93926e-06
5.53458e-06
-1.02792e-05
1.88232e-05
-3.39712e-05
6.03978e-05
-0.000105735
0.000182175
-0.000308735
0.000514345
-0.000841805
0.00135253
-0.00213164
0.00329258
-0.00497951
0.00736517
-0.0106409
0.0149948
-0.0205747
0.0274338
-0.0354603
0.0442999
-0.0532866
0.0614077
-0.0673356
0.0695588
-0.0666342
0.0575516
-0.0421616
0.0215593
0.0017239
-0.0238827
0.0404656
-0.0474529
0.0425826
-0.0265185
0.00334223
0.020084
-0.0360149
0.0385808
-0.0264437
0.00408813
0.0192655
-0.0332283
0.0310871
-0.0136455
-0.0103077
0.0279216
-0.0291948
0.0132163
0.0103865
-0.0266504
0.0247701
-0.00591748
-0.0166067
0.0262457
-0.0155979
-0.00705266
0.0233553
-0.0196162
-0.00101237
0.0202201
-0.0203807
0.00126674
0.0186377
-0.0194626
0.00027564
0.0188023
-0.0171338
-0.00354505
0.0198048
-0.0126343
-0.0095545
0.019675
-0.00491469
-0.0159778
0.0155634
0.00583541
-0.018978
0.00522829
0.0159727
-0.0134896
-0.00933092
0.0177142
0.00181182
-0.0184429
0.0048023
0.0169678
-0.00978957
-0.0145955
0.0131569
0.0123185
-0.0152449
-0.010777
0.0164265
0.0103502
-0.016917
-0.0112589
0.01666
0.0135934
-0.0152395
-0.0172393
0.0118849
0.0215481
-0.00547018
-0.0251281
-0.00456941
0.0246791
0.0183284
-0.0174283
-0.0296172
-0.0032346
0.0349866
0.0250171
-0.00849637
-0.0528032
-0.0184788
0.00872378
0.0834035
0.0196565
0.0163212
-0.133351
-0.0530829
-0.10053
0.174731
0.230658
0.565275
0.613492
0.844152
0.869017
0.942801
0.998153
0.948681
1.04333
0.956041
1.02613
0.996577
0.979911
1.03602
0.961423
1.02645
0.995912
0.980735
1.03323
0.968913
1.01365
1.01031
0.972078
1.02919
0.986784
0.989614
1.02665
0.97523
1.00592
1.01661
0.973754
1.0156
1.00705
0.976645
1.01962
1.00101
0.97978
1.02038
0.998733
0.981362
1.01946
0.999724
0.981198
1.01713
1.00355
0.980195
1.01263
1.00955
0.980325
1.00491
1.01598
0.984437
0.994165
1.01898
0.994772
0.984027
1.01349
1.00933
0.982286
0.998188
1.01844
0.995198
0.983032
1.00979
1.0146
0.986843
0.987681
1.01524
1.01078
0.983574
0.98965
1.01692
1.01126
0.983341
0.986405
1.01524
1.01723
0.988125
0.978433
1.0055
1.02507
1.00468
0.975139
0.98198
1.01691
1.03046
1.00188
0.967145
0.97169
1.01348
1.04544
1.02912
0.976281
0.937171
0.95291
1.01914
1.08905
1.10637
1.03912
0.892604
0.699784
0.501359
0.328956
0.19801
0.109424
0.0554749
0.0257295
0.0108536
0.00411852
0.00137645
0.000387121
8.04911e-05
4.95785e-06
-5.88514e-06
-3.88702e-06
-1.55701e-06
-4.55932e-07
-8.99538e-08
-3.37508e-09
6.57021e-09
3.5413e-09
1.13341e-09
2.32856e-10
1.31857e-11
-1.30044e-11
-6.83343e-12
-1.96643e-12
-3.20057e-13
1.25584e-14
2.86639e-14
1.07381e-14
2.26614e-15
1.46827e-16
-9.72365e-17
-4.67873e-17
-1.11504e-17
-1.09955e-18
3.06417e-19
1.78197e-19
4.41433e-20
4.62893e-21
-1.02829e-21
-6.18352e-22
-1.47503e-22
-1.36403e-23
3.78356e-24
1.96504e-24
4.18738e-25
2.6388e-26
-1.38581e-26
-5.60834e-27
-9.86471e-28
-1.17105e-29
4.56634e-29
1.39118e-29
1.80324e-30
-1.50953e-31
-1.27882e-31
-2.87008e-32
-2.04344e-33
7.47379e-34
2.94347e-34
4.57118e-35
-7.90502e-37
-2.19122e-36
-5.36302e-37
-4.53125e-38
1.09117e-38
4.63641e-39
7.14086e-40
-1.06962e-41
-3.12515e-41
-7.19019e-42
-5.10416e-43
1.56864e-43
5.68114e-44
7.40029e-45
-4.10897e-46
-3.70419e-46
-6.97757e-47
-2.35289e-48
1.98884e-48
5.28856e-49
4.69069e-50
-8.21677e-51
-3.42209e-51
-4.58664e-52
1.79746e-53
1.93063e-53
3.48498e-54
9.27075e-56
-9.50002e-56
-2.26698e-56
-1.59608e-57
3.98214e-58
1.31099e-58
1.3861e-59
-1.30853e-60
-6.86293e-61
-9.50724e-62
2.20143e-63
3.28101e-63
5.66864e-64
1.16964e-65
-1.43639e-65
-3.05275e-66
-1.59495e-67
5.73962e-68
1.51464e-68
1.17587e-69
-2.06832e-70
-7.00712e-71
-6.98375e-72
6.52126e-73
3.04702e-73
3.65522e-74
-1.65293e-75
-1.25268e-75
-1.74813e-76
2.26055e-78
4.89076e-78
7.78517e-79
8.28791e-81
-1.81997e-80
-3.2656e-81
-9.4223e-83
6.47528e-83
1.30016e-83
5.64944e-85
-2.20897e-85
-4.94065e-86
-2.73938e-87
7.24506e-88
1.79956e-88
1.17758e-89
-2.29102e-90
-6.3039e-91
-4.65222e-92
7.00575e-93
2.12962e-93
1.72002e-94
-2.0786e-95
-6.954e-96
-6.01432e-97
6.00647e-98
2.19902e-98
2.00235e-99
-1.69763e-100
-6.7449e-101
-6.3764e-102
4.71437e-103
2.00927e-103
1.94844e-104
-1.2923e-105
-5.81933e-106
-5.72634e-107
3.51115e-108
1.63998e-108
1.62133e-109
-9.48455e-111
-4.4999e-111
-4.42778e-112
2.551e-113
1.20267e-113
1.16723e-114
-6.82954e-116
-3.1317e-116
-2.97152e-117
1.81638e-118
7.94592e-119
7.3065e-120
-4.78416e-121
-1.96437e-121
-1.73488e-122
1.24336e-123
4.731e-124
3.97591e-125
-3.17685e-126
-1.10976e-126
-8.78656e-128
7.95376e-129
2.53461e-129
1.86986e-130
-1.94596e-131
-5.6342e-132
-3.82398e-133
4.64236e-134
1.21841e-134
7.49233e-136
-1.07813e-136
-2.562e-137
-1.40002e-138
2.43447e-139
5.23529e-140
2.47723e-141
-5.34022e-142
-1.03896e-142
-4.10114e-144
1.13728e-144
2.00097e-145
6.21244e-147
-2.35037e-147
-3.73676e-148
-8.19725e-150
4.71225e-150
6.75974e-151
8.10527e-153
-9.16289e-153
-1.18308e-153
-1.16807e-156
1.72766e-155
2.00022e-156
-2.2793e-158
-3.158e-158
-3.26028e-159
8.35814e-161
5.59497e-161
5.10953e-162
-2.17002e-163
-9.60489e-164
-7.67038e-165
4.83797e-166
1.59715e-166
1.09684e-167
-9.81141e-169
-2.57135e-169
-1.48099e-170
1.8559e-171
4.00575e-172
1.85987e-173
-3.31765e-174
-6.03355e-175
-2.10919e-176
5.64805e-177
8.77765e-178
2.01075e-179
-9.20132e-180
-1.23166e-180
-1.22259e-182
1.43898e-182
1.66369e-183
-7.44807e-186
-2.16482e-185
-2.15747e-186
4.53658e-188
3.13724e-188
2.67542e-189
-1.09347e-190
-4.38325e-191
-3.15356e-192
2.08019e-193
5.90656e-194
3.49892e-195
-3.49827e-196
-7.6764e-197
-3.5913e-198
5.41623e-199
9.61791e-200
3.29114e-201
-7.86964e-202
-1.16068e-202
-2.45386e-204
1.08437e-204
1.34712e-205
9.50399e-208
-1.42585e-207
-1.5002e-208
1.30854e-210
1.79616e-210
1.59734e-211
-4.3481e-213
-2.17301e-213
-1.61708e-214
8.10971e-216
2.52855e-216
1.54232e-217
-1.2441e-218
-2.83205e-219
-1.36351e-220
1.70995e-221
3.0535e-222
1.08114e-223
-2.17708e-224
-3.16765e-225
-7.06875e-227
2.61013e-227
3.15777e-228
2.63211e-230
-2.97398e-230
-3.01842e-231
2.18706e-233
3.23824e-233
2.75673e-234
-7.02622e-236
-3.38123e-236
-2.39183e-237
1.15163e-238
3.3928e-239
1.95254e-240
-1.53272e-241
-3.27545e-242
-1.47367e-243
1.82073e-244
3.04364e-245
9.91559e-247
-2.001e-247
-2.7214e-248
-5.39745e-250
2.07029e-250
2.33884e-251
1.45302e-253
-2.03616e-253
-1.92803e-254
1.73521e-256
1.91483e-256
1.51924e-257
-4.08175e-259
-1.72815e-259
-1.13777e-260
5.59249e-262
1.50027e-262
8.01993e-264
-6.34785e-265
-1.25452e-265
-5.2271e-267
6.47916e-268
1.01104e-268
3.03492e-270
-6.14319e-271
-7.85252e-272
-1.41958e-273
5.49902e-274
5.87293e-275
3.14827e-277
-4.69011e-277
-4.22267e-278
3.69878e-280
3.83302e-280
2.9105e-281
-7.33027e-283
-3.01261e-283
-1.91411e-284
8.68435e-286
2.28256e-286
1.19178e-287
-8.57003e-289
-1.66972e-289
-6.92899e-291
7.62702e-292
1.1803e-292
3.6611e-294
-6.31959e-295
-8.06498e-296
-1.64771e-297
4.95388e-298
5.32594e-299
4.99247e-301
-3.70784e-301
-3.39651e-302
8.75399e-305
2.66513e-304
2.08864e-305
-3.33911e-307
-1.84669e-307
-1.23541e-308
3.91317e-310
1.23679e-310
7.00067e-312
-3.56641e-313
-8.02091e-314
-3.77601e-315
2.87202e-316
5.04364e-317
1.91722e-318
-2.13644e-319
-3.07803e-320
-8.89318e-322
1.43279e-322
9.88131e-324
0
0
0
0
0
0
0
0
0
0
0
0
0
0
0
0
0
0
0
0
0
0
0
0
0
0
0
0
0
0
0
)
;

boundaryField
{
    sides
    {
        type            zeroGradient;
    }
    empty
    {
        type            empty;
    }
}


// ************************************************************************* //
