/*--------------------------------*- C++ -*----------------------------------*\
| =========                 |                                                 |
| \\      /  F ield         | OpenFOAM: The Open Source CFD Toolbox           |
|  \\    /   O peration     | Version:  2312                                  |
|   \\  /    A nd           | Website:  www.openfoam.com                      |
|    \\/     M anipulation  |                                                 |
\*---------------------------------------------------------------------------*/
FoamFile
{
    version     2.0;
    format      ascii;
    arch        "LSB;label=32;scalar=64";
    class       volScalarField;
    location    "2";
    object      T;
}
// * * * * * * * * * * * * * * * * * * * * * * * * * * * * * * * * * * * * * //

dimensions      [0 0 0 1 0 0 0];

internalField   nonuniform List<scalar> 
1000
(
0
0
0
0
0
0
0
0
0
0
0
0
0
0
0
0
0
0
0
0
0
0
0
0
0
0
0
0
0
0
0
0
0
0
0
0
0
0
0
0
0
0
0
0
0
0
0
0
0
0
0
0
1.97626e-323
-3.35965e-322
4.81714e-321
-6.86208e-320
9.73823e-319
-1.37727e-317
1.94133e-316
-2.72718e-315
3.81821e-314
-5.32762e-313
7.4085e-312
-1.02671e-310
1.41802e-309
-1.95179e-308
2.67727e-307
-3.65981e-306
4.98571e-305
-6.76854e-304
9.15712e-303
-1.23457e-301
1.65867e-300
-2.22069e-299
2.96277e-298
-3.93899e-297
5.21849e-296
-6.88929e-295
9.06295e-294
-1.18803e-292
1.55182e-291
-2.0198e-290
2.61955e-289
-3.38525e-288
4.3591e-287
-5.59294e-286
7.15018e-285
-9.10801e-284
1.15599e-282
-1.46187e-281
1.84195e-280
-2.31238e-279
2.89235e-278
-3.6045e-277
4.47548e-276
-5.53643e-275
6.82354e-274
-8.3787e-273
1.025e-271
-1.24926e-270
1.51688e-269
-1.83492e-268
2.2113e-267
-2.65484e-266
3.17528e-265
-3.78334e-264
4.49069e-263
-5.30995e-262
6.25465e-261
-7.33914e-260
8.57853e-259
-9.98851e-258
1.15852e-256
-1.33849e-255
1.5404e-254
-1.76584e-253
2.01634e-252
-2.29332e-251
2.59806e-250
-2.93166e-249
3.29496e-248
-3.68854e-247
4.11265e-246
-4.56715e-245
5.0515e-244
-5.56469e-243
6.10522e-242
-6.67108e-241
7.25971e-240
-7.86802e-239
8.49235e-238
-9.12853e-237
9.77189e-236
-1.04173e-234
1.10592e-233
-1.16918e-232
1.23088e-231
-1.2904e-230
1.34711e-229
-1.40037e-228
1.44956e-227
-1.49409e-226
1.53342e-225
-1.56703e-224
1.5945e-223
-1.61545e-222
1.62958e-221
-1.63669e-220
1.63665e-219
-1.62945e-218
1.61515e-217
-1.59391e-216
1.56598e-215
-1.5317e-214
1.49148e-213
-1.44581e-212
1.39524e-211
-1.34035e-210
1.28179e-209
-1.2202e-208
1.15627e-207
-1.09066e-206
1.02404e-205
-9.57034e-205
8.90261e-204
-8.24286e-203
7.59626e-202
-6.96746e-201
6.36053e-200
-5.77894e-199
5.22552e-198
-4.7025e-197
4.2115e-196
-3.75357e-195
3.32921e-194
-2.93846e-193
2.58089e-192
-2.2557e-191
1.96175e-190
-1.69765e-189
1.4618e-188
-1.25241e-187
1.06762e-186
-9.055e-186
7.64102e-185
-6.41497e-184
5.35805e-183
-4.45223e-182
3.6804e-181
-3.02656e-180
2.47587e-179
-2.01475e-178
1.63085e-177
-1.3131e-176
1.05161e-175
-8.37688e-175
6.63683e-174
-5.22974e-173
4.09852e-172
-3.19439e-171
2.476e-170
-1.90855e-169
1.46295e-168
-1.11511e-167
8.45182e-167
-6.36967e-166
4.77313e-165
-3.55625e-164
2.63434e-163
-1.9401e-162
1.42048e-161
-1.03393e-160
7.4812e-160
-5.38101e-159
3.84726e-158
-2.73411e-157
1.93127e-156
-1.35585e-155
9.46039e-155
-6.56015e-154
4.52072e-153
-3.0958e-152
2.10664e-151
-1.42443e-150
9.56989e-150
-6.38799e-149
4.23638e-148
-2.79111e-147
1.8268e-146
-1.18772e-145
7.67046e-145
-4.92033e-144
3.13478e-143
-1.98353e-142
1.24641e-141
-7.77773e-141
4.81933e-140
-2.96509e-139
1.81126e-138
-1.09846e-137
6.61339e-137
-3.95249e-136
2.34474e-135
-1.38059e-134
8.06778e-134
-4.67872e-133
2.69248e-132
-1.53744e-131
8.71016e-131
-4.89559e-130
2.72959e-129
-1.50961e-128
8.28074e-128
-4.50475e-127
2.43013e-126
-1.29987e-125
6.89355e-125
-3.62418e-124
1.88866e-123
-9.75503e-123
4.99323e-122
-2.53257e-121
1.27267e-120
-6.33553e-120
3.12399e-119
-1.52557e-118
7.37718e-118
-3.53194e-117
1.67392e-116
-7.85197e-116
3.64479e-115
-1.67392e-114
7.60466e-114
-3.41681e-113
1.51798e-112
-6.66672e-112
2.89373e-111
-1.24105e-110
5.25767e-110
-2.19958e-109
9.08431e-109
-3.70261e-108
1.48878e-107
-5.90324e-107
2.3073e-106
-8.88533e-106
3.3696e-105
-1.2577e-104
4.61746e-104
-1.66632e-103
5.9062e-103
-2.05434e-102
7.00514e-102
-2.33904e-101
7.63735e-101
-2.43461e-100
7.56208e-100
-2.28306e-99
6.67893e-99
-1.88548e-98
5.10752e-98
-1.31674e-97
3.18922e-97
-7.09528e-97
1.38381e-96
-2.0745e-96
9.18763e-97
9.3341e-96
-5.10521e-95
1.82291e-94
-5.27831e-94
1.28445e-93
-2.53176e-93
3.31035e-93
1.36175e-93
-2.79306e-92
1.17962e-91
-3.49381e-91
7.94141e-91
-1.25237e-90
3.59144e-91
6.55138e-90
-3.07489e-89
9.00336e-89
-1.86196e-88
2.09263e-88
3.17038e-88
-2.66451e-87
8.99075e-87
-1.98535e-86
2.34186e-86
3.19396e-86
-2.76703e-85
8.95437e-85
-1.77102e-84
1.24872e-84
6.34607e-84
-3.22039e-83
8.25332e-83
-1.08925e-82
-1.10137e-82
1.08884e-81
-3.30774e-81
5.24427e-81
1.67181e-81
-3.85155e-80
1.25875e-79
-2.0294e-79
-7.23695e-80
1.49887e-78
-4.65952e-78
6.5176e-78
6.76974e-78
-6.2232e-77
1.62478e-76
-1.47764e-76
-5.13341e-76
2.52716e-75
-4.83778e-75
-2.18194e-76
2.98508e-74
-8.96368e-74
9.08575e-74
2.66557e-73
-1.33004e-72
2.28821e-72
1.32684e-72
-1.73996e-71
4.12029e-71
-1.17881e-71
-2.11202e-70
6.45012e-70
-4.92479e-70
-2.48204e-69
9.41389e-69
-9.90961e-69
-2.96012e-68
1.32774e-67
-1.59775e-67
-3.7675e-67
1.84459e-66
-2.25809e-66
-5.28906e-66
2.54006e-65
-2.82853e-65
-8.12855e-65
3.4469e-64
-2.99408e-64
-1.31159e-63
4.52834e-63
-2.16023e-63
-2.1148e-62
5.57679e-62
6.25599e-63
-3.26574e-61
6.06739e-61
6.57839e-61
-4.64754e-60
5.02702e-60
1.66439e-59
-5.80789e-59
1.09674e-59
3.02404e-58
-5.7984e-58
-6.89457e-58
4.33099e-57
-3.25096e-57
-1.85406e-56
4.67439e-56
2.94872e-56
-2.98617e-55
2.79112e-55
1.21571e-54
-3.22227e-54
-2.11292e-54
2.01887e-53
-1.52643e-53
-8.84971e-53
1.92838e-52
2.35376e-52
-1.30764e-51
2.75289e-52
6.61324e-51
-8.76597e-51
-2.544e-50
7.26981e-50
5.97159e-50
-4.39437e-49
1.07664e-49
2.19045e-48
-2.51972e-48
-9.18226e-48
2.07044e-47
3.07345e-47
-1.30449e-46
-6.06827e-47
7.12006e-46
-1.77959e-46
-3.51493e-45
3.10684e-45
1.59877e-44
-2.47962e-44
-6.74286e-44
1.59181e-43
2.62765e-43
-9.16017e-43
-9.29972e-43
4.93234e-42
2.84917e-42
-2.54257e-41
-6.43004e-42
1.27315e-40
6.87179e-43
-6.25667e-40
1.12374e-40
3.04064e-39
-9.33203e-40
-1.46937e-38
5.5341e-39
7.08527e-38
-2.74519e-38
-3.41396e-37
1.1562e-37
1.64258e-36
-3.79557e-37
-7.86911e-36
5.2354e-37
3.73518e-35
5.73993e-36
-1.74423e-34
-7.52835e-35
7.93597e-34
6.16734e-34
-3.47091e-33
-4.22109e-33
1.42961e-32
2.58905e-32
-5.34657e-32
-1.45813e-31
1.66935e-31
7.59025e-31
-3.1195e-31
-3.63566e-30
-9.37586e-31
1.57615e-29
1.52817e-29
-5.94847e-29
-1.13386e-28
1.75851e-28
6.46721e-28
-2.34017e-28
-3.05797e-27
-1.71549e-27
1.18247e-26
1.87722e-26
-3.312e-26
-1.14958e-25
2.42906e-26
5.22026e-25
4.65262e-25
-1.71783e-24
-3.95786e-24
2.67099e-24
2.00109e-23
1.32866e-23
-6.7688e-23
-1.42697e-22
9.64311e-23
7.24485e-22
5.87909e-22
-2.18363e-21
-5.52652e-21
9.9103e-22
2.41152e-20
3.21315e-20
-4.90645e-20
-2.06526e-19
-1.28321e-19
6.24774e-19
1.53563e-18
5.60168e-20
-6.01442e-18
-1.05342e-17
5.39777e-18
5.09569e-17
7.02924e-17
-7.07503e-17
-4.0371e-16
-4.82676e-16
6.38135e-16
3.08066e-15
3.57701e-15
-4.63981e-15
-2.28475e-14
-2.89038e-14
2.6316e-14
1.62828e-13
2.45464e-13
-7.9025e-14
-1.07558e-12
-2.06159e-12
-6.32552e-13
6.07707e-12
1.60425e-11
1.48484e-11
-2.30868e-11
-1.06932e-10
-1.71085e-10
-3.18661e-11
5.23281e-10
1.38868e-09
1.60861e-09
-7.86441e-10
-7.50225e-09
-1.63828e-08
-1.65784e-08
1.23344e-08
8.78976e-08
1.90992e-07
2.17704e-07
-4.36357e-08
-8.31299e-07
-2.13513e-06
-3.2135e-06
-2.10265e-06
4.33697e-06
1.89621e-05
4.05961e-05
5.78684e-05
4.24155e-05
-5.37561e-05
-0.000288493
-0.000696695
-0.00122473
-0.00162839
-0.00134253
0.000653069
0.00593124
0.0166283
0.0353221
0.0647525
0.107396
0.164954
0.237849
0.324859
0.422989
0.52766
0.633214
0.733652
0.823477
0.898458
0.956177
0.996231
1.02008
1.03059
1.03142
1.02633
1.01862
1.0108
1.0044
1.00007
0.997782
0.997103
0.997437
0.998228
0.999067
0.999721
1.00011
1.00027
1.00027
1.0002
1.0001
1.00003
0.999987
0.999972
0.999974
0.999983
0.999993
0.999999
1
1
1
1
1
1
1
1
1
1
1
1
1
1
1
1
1
1
1
1
1
1
1
1
1
1
1
1
1
1
1
1
1
1
1
1
1
1
1
1
1
1
1
1
1
1
0.999996
0.999981
0.999959
0.999942
0.999958
1.00005
1.00029
1.0007
1.00122
1.00163
1.00134
0.999347
0.994069
0.983372
0.964678
0.935248
0.892604
0.835046
0.762151
0.675141
0.577011
0.47234
0.366786
0.266348
0.176523
0.101542
0.0438226
0.00376948
-0.0200778
-0.0305911
-0.0314202
-0.0263269
-0.0186223
-0.0107997
-0.00439771
-6.77005e-05
0.00221782
0.00289686
0.00256275
0.00177171
0.000933468
0.000279449
-0.000113674
-0.000272697
-0.000273006
-0.000195704
-0.000102851
-2.9489e-05
1.29668e-05
2.81904e-05
2.61715e-05
1.69246e-05
7.37161e-06
7.86546e-07
-2.31217e-06
-2.84682e-06
-2.08973e-06
-1.04114e-06
-2.36791e-07
1.78831e-07
2.82878e-07
2.20501e-07
1.13221e-07
2.79169e-08
-1.62786e-08
-2.72133e-08
-2.08129e-08
-1.01486e-08
-2.05081e-09
1.82706e-09
2.53449e-09
1.75722e-09
7.43781e-10
6.31465e-11
-2.10016e-10
-2.18977e-10
-1.28365e-10
-4.0849e-11
7.68318e-12
2.12397e-11
1.65459e-11
7.5659e-12
1.10891e-12
-1.5793e-12
-1.7653e-12
-1.0192e-12
-3.02018e-13
7.42961e-14
1.62704e-13
1.14994e-13
4.52483e-14
1.37953e-15
-1.32471e-14
-1.15007e-14
-5.38813e-15
-8.58843e-16
9.6598e-16
1.05327e-15
5.59304e-16
1.31076e-16
-6.38669e-17
-9.03827e-17
-5.27089e-17
-1.48116e-17
3.91012e-18
7.3983e-18
4.61192e-18
1.42342e-18
-2.32982e-19
-5.85769e-19
-3.79704e-19
-1.21908e-19
1.49243e-20
4.5285e-20
2.96392e-20
9.48444e-21
-1.14178e-21
-3.43229e-21
-2.20054e-21
-6.74108e-22
1.03246e-22
2.54697e-22
1.55319e-22
4.35667e-23
-9.88989e-24
-1.83975e-23
-1.03826e-23
-2.51533e-24
9.18686e-25
1.28252e-24
6.52677e-25
1.24102e-25
-7.95827e-26
-8.54321e-26
-3.81539e-26
-4.57767e-27
6.34771e-27
5.38027e-27
2.0374e-27
4.39007e-29
-4.64533e-28
-3.16612e-28
-9.62564e-29
1.27067e-29
3.11328e-29
1.7162e-29
3.74504e-30
-1.61309e-30
-1.90476e-30
-8.39372e-31
-9.28432e-32
1.34206e-31
1.05702e-31
3.57069e-32
-1.65941e-33
-9.08623e-33
-5.25543e-33
-1.21149e-33
4.24834e-34
5.28402e-34
2.28523e-34
2.28121e-35
-3.61391e-35
-2.67462e-35
-8.23161e-36
8.4423e-37
2.27058e-36
1.1675e-36
2.0721e-37
-1.25342e-37
-1.17311e-37
-4.2277e-38
-9.17555e-41
8.75475e-39
5.08362e-39
1.12157e-39
-4.01671e-40
-4.59621e-40
-1.80131e-40
-8.96649e-42
3.13687e-41
1.95033e-41
4.6693e-42
-1.28203e-42
-1.64504e-42
-6.60989e-43
-4.1647e-44
1.06969e-43
6.70497e-44
1.59221e-44
-4.32128e-45
-5.43631e-45
-2.11955e-45
-1.03464e-46
3.49568e-46
2.07666e-46
4.49469e-47
-1.52502e-47
-1.65825e-47
-5.93802e-48
-4.16726e-50
1.08344e-48
5.77004e-49
1.02036e-49
-5.29297e-50
-4.62524e-50
-1.43229e-50
1.01163e-51
3.11831e-51
1.41942e-51
1.65781e-52
-1.69872e-52
-1.16076e-52
-2.86589e-53
6.0898e-54
8.13489e-54
3.01719e-54
8.49981e-56
-4.84925e-55
-2.56345e-55
-4.31415e-56
2.29704e-56
1.8772e-56
5.29385e-57
-6.14449e-58
-1.20315e-57
-4.82417e-58
-3.08928e-59
6.64119e-59
3.72991e-59
6.85144e-60
-2.9349e-60
-2.54644e-60
-7.30058e-61
7.29858e-62
1.54907e-61
6.14001e-62
3.66329e-63
-8.28415e-63
-4.48594e-63
-7.59487e-64
3.69272e-64
2.9413e-64
7.73943e-65
-1.11544e-65
-1.74762e-65
-6.2778e-66
-1.18342e-67
9.357e-67
4.45962e-67
5.65455e-68
-4.39494e-68
-2.87098e-68
-6.15221e-69
1.66763e-69
1.69761e-69
5.04533e-70
-3.44996e-71
-9.24013e-71
-3.58272e-71
-1.86807e-72
4.59155e-72
2.30663e-72
3.24693e-73
-2.03064e-73
-1.37341e-73
-2.97139e-74
7.44599e-75
7.62863e-75
2.20558e-75
-1.68866e-76
-3.96023e-76
-1.45514e-76
-4.68525e-78
1.91291e-77
8.8365e-78
9.97885e-79
-8.48192e-79
-5.02178e-79
-9.06988e-80
3.34166e-80
2.69341e-80
6.55016e-81
-1.0685e-81
-1.36855e-81
-4.19164e-82
1.77686e-83
6.58968e-83
2.47365e-83
1.04045e-84
-2.99684e-84
-1.37213e-84
-1.48688e-85
1.27632e-85
7.22898e-86
1.19381e-86
-4.99853e-87
-3.6392e-87
-7.91012e-88
1.72675e-88
1.75659e-88
4.71601e-89
-4.65442e-90
-8.14251e-90
-2.61779e-90
4.13889e-92
3.62464e-91
1.37623e-91
6.54996e-93
-1.54681e-92
-6.92023e-93
-6.90257e-94
6.3027e-94
3.34886e-94
4.8613e-95
-2.43324e-95
-1.56601e-95
-2.92277e-96
8.77092e-97
7.09608e-97
1.60441e-97
-2.86338e-98
-3.12173e-98
-8.2739e-99
7.8353e-100
1.33494e-99
4.06883e-100
-1.30058e-101
-5.55289e-101
-1.92513e-101
-3.45177e-103
2.24726e-102
8.81611e-103
5.08394e-104
-8.05574e-104
)
;

boundaryField
{
    sides
    {
        type            zeroGradient;
    }
    empty
    {
        type            empty;
    }
}


// ************************************************************************* //
