/*--------------------------------*- C++ -*----------------------------------*\
| =========                 |                                                 |
| \\      /  F ield         | OpenFOAM: The Open Source CFD Toolbox           |
|  \\    /   O peration     | Version:  2312                                  |
|   \\  /    A nd           | Website:  www.openfoam.com                      |
|    \\/     M anipulation  |                                                 |
\*---------------------------------------------------------------------------*/
FoamFile
{
    version     2.0;
    format      ascii;
    arch        "LSB;label=32;scalar=64";
    class       volScalarField;
    location    "1";
    object      T;
}
// * * * * * * * * * * * * * * * * * * * * * * * * * * * * * * * * * * * * * //

dimensions      [0 0 0 1 0 0 0];

internalField   nonuniform List<scalar> 
1000
(
0
0
0
0
0
0
0
0
0
0
0
0
0
0
0
0
0
0
0
0
0
0
0
0
0
0
0
0
0
0
0
0
0
0
0
0
0
0
0
0
0
0
0
0
0
0
0
0
0
0
0
0
0
0
0
0
0
0
0
0
0
0
0
0
0
0
0
0
0
0
0
0
0
0
0
0
0
0
0
0
0
0
0
0
0
0
0
0
0
0
0
0
0
0
0
0
0
0
0
0
0
0
0
0
0
0
0
0
0
0
0
0
0
0
0
0
0
0
0
0
0
0
0
0
0
0
0
0
0
0
0
0
0
0
0
0
0
0
0
0
0
0
0
0
0
0
0
0
0
0
0
0
0
0
0
0
0
0
0
0
0
0
0
0
0
0
0
0
0
0
0
0
0
-4.94066e-324
2.96439e-323
-4.94066e-324
2.96439e-323
-4.94066e-324
2.96439e-323
-4.94066e-324
2.96439e-323
-4.94066e-324
2.96439e-323
-4.94066e-324
2.96439e-323
-4.94066e-324
2.96439e-323
-4.94066e-324
2.96439e-323
-4.94066e-324
2.96439e-323
-4.94066e-324
2.96439e-323
-4.94066e-324
2.96439e-323
-4.94066e-324
2.96439e-323
-4.94066e-324
2.96439e-323
-4.94066e-324
2.96439e-323
-4.94066e-324
2.96439e-322
-3.6462e-321
4.70252e-320
-6.04988e-319
7.78311e-318
-1.0013e-316
1.28818e-315
-1.65725e-314
2.13205e-313
-2.7429e-312
3.52875e-311
-4.53975e-310
5.84041e-309
-7.51371e-308
9.66642e-307
-1.24359e-305
1.59988e-304
-2.05826e-303
2.64795e-302
-3.4066e-301
4.38261e-300
-5.63825e-299
7.25363e-298
-9.33183e-297
1.20054e-295
-1.5445e-294
1.98701e-293
-2.5563e-292
3.28869e-291
-4.23091e-290
5.44309e-289
-7.00255e-288
9.00882e-287
-1.15899e-285
1.49104e-284
-1.91823e-283
2.46782e-282
-3.17486e-281
4.08446e-280
-5.25468e-279
6.76017e-278
-8.69699e-277
1.11887e-275
-1.43943e-274
1.85184e-273
-2.3824e-272
3.06496e-271
-3.94309e-270
5.0728e-269
-6.52618e-268
8.39595e-267
-1.08014e-265
1.38961e-264
-1.78774e-263
2.29993e-262
-2.95887e-261
3.8066e-260
-4.89721e-259
6.30028e-258
-8.10534e-257
1.04276e-255
-1.34151e-254
1.72586e-253
-2.22032e-252
2.85645e-251
-3.67484e-250
4.7277e-249
-6.0822e-248
7.82478e-247
-1.00666e-245
1.29507e-244
-1.66612e-243
2.14347e-242
-2.75758e-241
3.54764e-240
-4.56406e-239
5.87168e-238
-7.55394e-237
9.71817e-236
-1.25025e-234
1.60845e-233
-2.06928e-232
2.66213e-231
-3.42484e-230
4.40608e-229
-5.66844e-228
7.29247e-227
-9.38179e-226
1.20697e-224
-1.55277e-223
1.99765e-222
-2.56999e-221
3.3063e-220
-4.25357e-219
5.47223e-218
-7.04005e-217
9.05705e-216
-1.16519e-214
1.49903e-213
-1.9285e-212
2.48103e-211
-3.19185e-210
4.10633e-209
-5.28282e-208
6.79637e-207
-8.74355e-206
1.12486e-204
-1.44714e-203
1.86175e-202
-2.39515e-201
3.08137e-200
-3.9642e-199
5.09996e-198
-6.56112e-197
8.44091e-196
-1.08593e-194
1.39705e-193
-1.79731e-192
2.31225e-191
-2.97471e-190
3.82698e-189
-4.92343e-188
6.33401e-187
-8.14874e-186
1.04834e-184
-1.34869e-183
1.7351e-182
-2.23221e-181
2.87175e-180
-3.69452e-179
4.75301e-178
-6.11477e-177
7.86668e-176
-1.01205e-174
1.30201e-173
-1.67504e-172
2.15495e-171
-2.77235e-170
3.56664e-169
-4.58849e-168
5.90311e-167
-7.59438e-166
9.77021e-165
-1.25694e-163
1.61706e-162
-2.08035e-161
2.67639e-160
-3.44318e-159
4.42967e-158
-5.69879e-157
7.33151e-156
-9.43202e-155
1.21343e-153
-1.56109e-152
2.00835e-151
-2.58375e-150
3.324e-149
-4.27634e-148
5.50153e-147
-7.07774e-146
9.10554e-145
-1.17143e-143
1.50705e-142
-1.93883e-141
2.49431e-140
-3.20894e-139
4.12832e-138
-5.3111e-137
6.83275e-136
-8.79037e-135
1.13088e-133
-1.45489e-132
1.87172e-131
-2.40798e-130
3.09787e-129
-3.98542e-128
5.12726e-127
-6.59625e-126
8.4861e-125
-1.09174e-123
1.40453e-122
-1.80693e-121
2.32463e-120
-2.99064e-119
3.84747e-118
-4.94979e-117
6.36793e-116
-8.19237e-115
1.05395e-113
-1.35591e-112
1.74439e-111
-2.24416e-110
2.88712e-109
-3.7143e-108
4.77846e-107
-6.14751e-106
7.9088e-105
-1.01747e-103
1.30898e-102
-1.68401e-101
2.16648e-100
-2.78719e-99
3.58573e-98
-4.61306e-97
5.93472e-96
-7.63504e-95
9.82252e-94
-1.26367e-92
1.62572e-91
-2.09149e-90
2.69072e-89
-3.46162e-88
4.45338e-87
-5.7293e-86
7.37077e-85
-9.48252e-84
1.21993e-82
-1.56945e-81
2.0191e-80
-2.59758e-79
3.3418e-78
-4.29924e-77
5.53099e-76
-7.11564e-75
9.1543e-74
-1.1777e-72
1.51512e-71
-1.94921e-70
2.50767e-69
-3.22613e-68
4.15042e-67
-5.33954e-66
6.86934e-65
-8.83743e-64
1.13694e-62
-1.46268e-61
1.88174e-60
-2.42087e-59
3.11446e-58
-4.00676e-57
5.15472e-56
-6.63157e-55
8.21371e-56
2.98688e-53
-2.07176e-52
-1.08876e-51
1.73076e-50
3.84358e-50
-9.09166e-49
-1.82604e-48
3.69366e-47
1.12459e-46
-1.0389e-45
-4.98139e-44
-1.63172e-42
-6.79813e-42
1.19289e-41
6.07054e-40
1.37528e-38
2.69494e-37
4.78167e-36
7.76441e-35
1.16108e-33
1.60708e-32
2.0679e-31
2.48309e-30
2.79178e-29
2.94773e-28
2.93067e-27
2.75011e-26
2.44101e-25
2.05337e-24
1.63986e-23
1.24532e-22
9.00586e-22
6.21034e-21
4.08867e-20
2.57283e-19
1.54899e-18
8.93099e-18
4.93563e-17
2.61651e-16
1.33154e-15
6.50919e-15
3.05849e-14
1.38209e-13
6.00947e-13
2.51538e-12
1.01396e-11
3.93774e-11
1.47376e-10
5.31719e-10
1.8498e-09
6.20648e-09
2.00871e-08
6.27189e-08
1.88943e-07
5.49213e-07
1.54041e-06
4.16876e-06
1.0885e-05
2.74192e-05
6.66233e-05
0.00015612
0.000352736
0.000768205
0.00161211
0.00325863
0.00634167
0.0118764
0.021391
0.0370321
0.0615781
0.098279
0.150433
0.220665
0.30995
0.416594
0.53551
0.658207
0.773806
0.871085
0.941249
0.981192
0.996574
0.999735
0.999994
1
1
1
1
1
1
1
1
1
1
1
1
1
1
1
1
1
1
1
1
1
1
1
1
1
1
1
1
1
1
1
1
1
1
1
1
1
1
1
1
1
1
1
1
1
1
1
1
1
1
1
1
1
1
1
1
1
1
1
1
1
1
1
1
1
1
1
1
1
1
0.999999
0.999998
0.999996
0.999989
0.999972
0.999933
0.999843
0.999646
0.99923
0.998385
0.996735
0.993647
0.988105
0.978579
0.962922
0.938354
0.901626
0.849441
0.779179
0.689868
0.583208
0.46429
0.341607
0.226041
0.128805
0.0586847
0.0187789
0.0034184
0.000264468
6.2512e-06
3.30432e-08
3.01025e-11
3.9226e-15
3.27311e-19
2.77847e-23
2.38624e-27
2.06012e-31
1.77918e-35
1.53285e-39
1.31613e-43
1.12635e-47
9.61518e-52
8.19512e-56
6.97991e-60
5.9447e-64
5.06494e-68
4.31772e-72
3.68271e-76
3.14242e-80
2.68209e-84
2.28943e-88
1.95424e-92
1.66798e-96
1.42348e-100
1.21466e-104
1.03637e-108
8.84177e-113
7.54292e-117
6.43464e-121
5.48908e-125
4.68239e-129
3.9942e-133
3.4071e-137
2.90624e-141
2.47894e-145
2.11442e-149
1.80344e-153
1.53816e-157
1.31187e-161
1.11883e-165
9.54179e-170
8.13737e-174
6.93951e-178
5.91785e-182
5.0465e-186
4.30336e-190
3.66958e-194
3.12907e-198
2.66812e-202
2.27503e-206
1.9398e-210
1.65394e-214
1.41017e-218
1.2023e-222
1.02505e-226
8.73904e-231
7.45028e-235
6.35142e-239
5.41448e-243
4.61564e-247
3.93455e-251
3.35387e-255
2.85881e-259
2.43676e-263
2.07696e-267
1.77024e-271
1.50877e-275
1.28589e-279
1.0959e-283
9.33957e-288
7.95924e-292
6.78274e-296
5.77998e-300
4.92535e-304
4.19698e-308
3.57622e-312
3.0472e-316
2.59631e-320
0
0
0
0
0
0
0
0
0
0
0
0
0
0
0
0
0
0
0
0
0
0
0
0
0
0
0
0
0
0
0
0
0
0
0
0
0
0
0
0
0
0
0
0
0
0
0
0
0
0
0
0
0
0
0
0
0
0
0
0
0
0
0
0
0
0
0
0
0
0
0
0
0
0
0
0
0
0
0
0
0
0
0
0
0
0
0
0
0
0
0
0
0
0
0
0
0
0
0
0
0
0
0
0
0
0
0
0
0
0
0
0
0
0
0
0
0
0
0
0
0
0
0
0
0
0
0
0
0
0
0
0
0
0
0
0
0
0
0
0
0
0
0
0
0
0
0
0
0
0
0
0
0
0
0
0
0
0
0
0
0
0
0
0
0
0
0
0
0
0
0
0
0
0
0
0
0
0
0
0
0
0
0
0
0
0
0
0
0
0
0
0
0
0
0
0
0
0
0
0
0
0
0
0
0
0
0
0
0
0
0
0
0
0
0
0
0
0
0
0
0
0
0
0
0
0
0
0
0
0
0
0
0
0
0
0
0
0
0
0
0
0
0
0
0
0
0
0
0
0
0
0
0
0
0
0
0
0
0
0
0
0
0
0
0
0
0
0
0
0
0
0
0
0
0
0
0
0
0
0
0
0
0
0
0
0
0
0
0
0
0
0
0
)
;

boundaryField
{
    sides
    {
        type            zeroGradient;
    }
    empty
    {
        type            empty;
    }
}


// ************************************************************************* //
