/*--------------------------------*- C++ -*----------------------------------*\
| =========                 |                                                 |
| \\      /  F ield         | OpenFOAM: The Open Source CFD Toolbox           |
|  \\    /   O peration     | Version:  2312                                  |
|   \\  /    A nd           | Website:  www.openfoam.com                      |
|    \\/     M anipulation  |                                                 |
\*---------------------------------------------------------------------------*/
FoamFile
{
    version     2.0;
    format      ascii;
    arch        "LSB;label=32;scalar=64";
    class       volScalarField;
    location    "2.8";
    object      T;
}
// * * * * * * * * * * * * * * * * * * * * * * * * * * * * * * * * * * * * * //

dimensions      [0 0 0 1 0 0 0];

internalField   nonuniform List<scalar> 
1000
(
0
0
0
0
0
0
0
0
0
0
0
0
0
0
0
0
0
0
0
0
0
0
0
0
0
0
0
0
0
0
0
0
0
0
0
0
0
0
0
0
0
0
0
0
0
0
0
0
0
0
0
0
0
0
0
0
0
0
0
0
0
0
0
0
0
0
0
0
0
0
0
0
0
0
0
0
0
0
0
0
0
0
0
0
0
0
0
0
0
0
0
0
0
0
0
0
0
0
0
0
0
0
0
0
0
0
0
0
0
0
0
0
0
0
0
0
0
0
0
0
0
0
0
0
0
0
0
0
0
0
0
0
0
0
0
0
0
0
0
0
0
0
0
0
0
0
0
0
0
0
0
0
0
0
0
0
0
0
0
0
0
0
0
0
0
0
0
0
0
0
0
0
0
0
0
0
0
0
0
0
0
0
0
0
0
0
0
0
0
0
0
0
0
0
0
0
0
0
0
0
0
0
0
0
0
0
0
0
0
0
0
0
0
0
0
0
0
0
0
0
0
0
0
0
0
0
0
0
0
0
0
0
0
0
0
0
0
0
0
0
0
0
0
0
0
0
0
0
0
0
0
0
0
0
0
0
0
0
0
0
0
0
0
0
0
0
0
0
0
0
0
0
0
0
0
0
0
0
0
0
0
0
0
0
0
0
0
0
0
0
0
0
0
0
0
0
0
0
0
0
0
0
0
0
0
0
0
0
0
0
0
0
0
0
0
0
0
0
0
0
0
0
0
0
0
0
0
0
0
0
0
0
0
0
0
0
0
0
0
0
0
0
0
0
0
0
0
0
0
0
0
0
0
0
0
0
0
0
0
0
0
0
0
0
0
0
0
0
0
0
0
0
0
0
0
0
0
0
0
0
0
0
0
0
0
0
0
0
0
0
0
0
0
0
0
0
0
0
0
0
0
0
0
0
0
0
0
0
0
0
0
0
0
0
0
0
0
0
0
0
0
0
0
0
0
0
0
0
0
0
0
0
0
0
0
0
0
0
0
0
0
0
0
0
0
0
0
0
0
0
1.10844e-80
1.98612e-78
1.78006e-76
1.064e-74
4.77174e-73
1.71265e-71
5.12444e-70
1.31475e-68
2.95269e-67
5.89667e-66
1.06024e-64
1.73372e-63
2.59974e-62
3.59988e-61
4.63052e-60
5.56129e-59
6.26413e-58
6.64331e-57
6.65662e-56
6.32135e-55
5.70503e-54
4.90552e-53
4.02789e-52
3.16471e-51
2.38383e-50
1.72448e-49
1.19998e-48
8.04399e-48
5.20167e-47
3.24896e-46
1.96242e-45
1.14754e-44
6.5032e-44
3.57513e-43
1.90836e-42
9.89948e-42
4.99459e-41
2.45278e-40
1.17329e-39
5.47071e-39
2.48804e-38
1.10438e-37
4.78724e-37
2.02771e-36
8.39677e-36
3.4012e-35
1.34828e-34
5.23309e-34
1.98961e-33
7.413e-33
2.70782e-32
9.70108e-32
3.41004e-31
1.17653e-30
3.98565e-30
1.32618e-29
4.33565e-29
1.39314e-28
4.40107e-28
1.36733e-27
4.17891e-27
1.25676e-26
3.7201e-26
1.08414e-25
3.11138e-25
8.79559e-25
2.44976e-24
6.72404e-24
1.8192e-23
4.85255e-23
1.27641e-22
3.31152e-22
8.47563e-22
2.14046e-21
5.33473e-21
1.31241e-20
3.18754e-20
7.64447e-20
1.81058e-19
4.23582e-19
9.7899e-19
2.23567e-18
5.04537e-18
1.12538e-17
2.48135e-17
5.4091e-17
1.16592e-16
2.4853e-16
5.23977e-16
1.09276e-15
2.25464e-15
4.60278e-15
9.29835e-15
1.85903e-14
3.67888e-14
7.20677e-14
1.39769e-13
2.68396e-13
5.10364e-13
9.61104e-13
1.79264e-12
3.312e-12
6.06189e-12
1.09923e-11
1.97502e-11
3.51641e-11
6.20458e-11
1.08505e-10
1.88085e-10
3.23191e-10
5.5056e-10
9.29881e-10
1.55727e-09
2.58612e-09
4.25912e-09
6.95682e-09
1.12708e-08
1.81128e-08
2.88761e-08
4.56715e-08
7.16699e-08
1.11595e-07
1.72427e-07
2.64388e-07
4.02338e-07
6.07687e-07
9.11044e-07
1.35581e-06
2.00302e-06
2.93785e-06
4.2782e-06
6.18593e-06
8.88158e-06
1.26632e-05
1.79306e-05
2.52156e-05
3.52202e-05
4.88642e-05
6.73429e-05
9.2198e-05
0.000125402
0.00016946
0.000227528
0.000303552
0.000402426
0.000530175
0.000694156
0.000903286
0.00116828
0.00150193
0.00191935
0.0024383
0.00307945
0.00386665
0.00482723
0.00599221
0.0073965
0.00907905
0.0110829
0.0134552
0.0162472
0.0195136
0.0233129
0.0277063
0.0327576
0.0385319
0.0450952
0.0525131
0.0608498
0.0701668
0.0805217
0.0919665
0.104547
0.1183
0.133253
0.149425
0.166821
0.185433
0.205242
0.226214
0.248302
0.271443
0.295563
0.320575
0.346379
0.372866
0.399915
0.427401
0.455191
0.48315
0.511139
0.539022
0.566663
0.593932
0.620704
0.646862
0.672298
0.696915
0.720626
0.743358
0.765049
0.785652
0.80513
0.82346
0.840631
0.856643
0.871506
0.885242
0.897878
0.909452
0.920005
0.929584
0.938243
0.946034
0.953015
0.959243
0.964775
0.969667
0.973976
0.977755
0.981054
0.983924
0.986409
0.988552
0.990392
0.991966
0.993306
0.994443
0.995403
0.996211
0.996887
0.997451
0.997918
0.998304
0.99862
0.998876
0.999082
0.999245
0.999369
0.99946
0.99952
0.999551
0.999552
0.999524
0.999463
0.999365
0.999225
0.999034
0.998783
0.998461
0.998052
0.99754
0.996904
0.996121
0.995163
0.994001
0.992598
0.990917
0.988914
0.986543
0.983751
0.980485
0.976686
0.972293
0.967242
0.961468
0.954905
0.947487
0.93915
0.929833
0.919478
0.908033
0.895453
0.8817
0.866747
0.850575
0.833179
0.814567
0.794758
0.773786
0.751698
0.728557
0.704437
0.679425
0.653621
0.627134
0.600085
0.572599
0.544809
0.51685
0.488861
0.460978
0.433337
0.406068
0.379296
0.353138
0.327702
0.303085
0.279374
0.256642
0.234951
0.214348
0.19487
0.17654
0.159369
0.143357
0.128494
0.114758
0.102122
0.0905483
0.0799954
0.0704155
0.0617571
0.0539656
0.0469847
0.0407571
0.0352254
0.0303328
0.0260239
0.0222452
0.0189454
0.0160759
0.013591
0.0114481
0.00960775
0.00803374
0.00669305
0.00555575
0.00459489
0.00378638
0.0031088
0.00254321
0.00207299
0.00168361
0.00136243
0.00109856
0.000882611
0.000706573
0.000563625
0.000447994
0.000354819
0.000280026
0.000220217
0.000172571
0.000134758
0.000104861
8.13112e-05
6.28303e-05
4.8381e-05
3.71253e-05
2.83897e-05
2.16347e-05
1.64303e-05
1.24351e-05
9.3792e-06
7.05018e-06
5.2815e-06
3.94313e-06
2.93398e-06
2.17575e-06
1.60806e-06
1.18452e-06
8.69622e-07
6.36319e-07
4.64066e-07
3.37325e-07
2.44392e-07
1.76481e-07
1.27025e-07
9.11306e-08
6.51668e-08
4.64495e-08
3.30015e-08
2.33716e-08
1.64987e-08
1.16097e-08
8.14347e-09
5.69401e-09
3.96874e-09
2.75751e-09
1.90992e-09
1.31872e-09
9.07682e-10
6.22821e-10
4.26035e-10
2.90525e-10
1.97508e-10
1.3386e-10
9.04459e-11
6.09259e-11
4.09161e-11
2.73949e-11
1.82867e-11
1.217e-11
8.07506e-12
5.34197e-12
3.52341e-12
2.31705e-12
1.51922e-12
9.93175e-13
6.47371e-13
4.20735e-13
2.72643e-13
1.76164e-13
1.13495e-13
7.29094e-14
4.67022e-14
2.98293e-14
1.89979e-14
1.2065e-14
7.64038e-15
4.8247e-15
3.03808e-15
1.90767e-15
1.19451e-15
7.45861e-16
4.64425e-16
2.88381e-16
1.78572e-16
1.10271e-16
6.79064e-17
4.17032e-17
2.55411e-17
1.56e-17
9.50235e-18
5.77244e-18
3.49716e-18
2.11301e-18
1.27327e-18
7.65208e-19
4.58648e-19
2.74173e-19
1.63463e-19
9.71999e-20
5.7646e-20
3.40982e-20
2.01168e-20
1.18373e-20
6.9473e-21
4.06681e-21
2.37448e-21
1.38282e-21
8.03242e-22
4.65388e-22
2.68952e-22
1.55035e-22
8.91421e-23
5.11255e-23
2.9248e-23
1.66903e-23
9.50043e-24
5.39432e-24
3.05527e-24
1.72617e-24
9.72838e-25
5.46924e-25
3.06721e-25
1.71591e-25
9.576e-26
5.33107e-26
2.96065e-26
1.64024e-26
9.06524e-27
4.99808e-27
2.74906e-27
1.50842e-27
8.25707e-28
4.50914e-28
2.45658e-28
1.33518e-28
7.23971e-29
3.91635e-29
2.1136e-29
1.13801e-29
6.11306e-30
3.27611e-30
1.75167e-30
9.34415e-31
4.97309e-31
2.64067e-31
1.39896e-31
7.39439e-32
3.89951e-32
2.05178e-32
1.07712e-32
5.6418e-33
2.94843e-33
1.53741e-33
7.99857e-34
4.15207e-34
2.15055e-34
1.11139e-34
5.73091e-35
2.94862e-35
1.51376e-35
7.75426e-36
3.96343e-36
2.0214e-36
1.0287e-36
5.22369e-37
2.64683e-37
1.33824e-37
6.75161e-38
3.39896e-38
1.70747e-38
8.55917e-39
4.28137e-39
2.13703e-39
1.06443e-39
5.2906e-40
2.62407e-40
1.29877e-40
6.41473e-41
3.16166e-41
1.55505e-41
7.63255e-42
3.73847e-42
1.82733e-42
8.91342e-43
4.33887e-43
2.10774e-43
1.0218e-43
4.94344e-44
2.38675e-44
1.15001e-44
5.52986e-45
2.65368e-45
1.27089e-45
6.07426e-46
2.89739e-46
1.37928e-46
6.55283e-47
3.107e-47
1.47025e-47
6.94354e-48
3.27275e-48
1.53953e-48
7.22786e-49
3.38672e-49
1.5838e-49
7.3922e-50
3.44352e-50
1.60099e-50
7.42903e-51
3.44063e-51
1.5904e-51
7.33739e-52
3.37865e-52
1.5528e-52
7.12294e-53
)
;

boundaryField
{
    sides
    {
        type            zeroGradient;
    }
    empty
    {
        type            empty;
    }
}


// ************************************************************************* //
