/*--------------------------------*- C++ -*----------------------------------*\
| =========                 |                                                 |
| \\      /  F ield         | OpenFOAM: The Open Source CFD Toolbox           |
|  \\    /   O peration     | Version:  2312                                  |
|   \\  /    A nd           | Website:  www.openfoam.com                      |
|    \\/     M anipulation  |                                                 |
\*---------------------------------------------------------------------------*/
FoamFile
{
    version     2.0;
    format      ascii;
    arch        "LSB;label=32;scalar=64";
    class       volScalarField;
    location    "1.8";
    object      T;
}
// * * * * * * * * * * * * * * * * * * * * * * * * * * * * * * * * * * * * * //

dimensions      [0 0 0 1 0 0 0];

internalField   nonuniform List<scalar> 
1000
(
0
0
0
0
0
0
0
0
0
0
0
0
0
0
0
0
0
0
0
0
0
0
0
0
0
0
0
0
0
0
0
0
0
0
0
0
0
0
0
0
0
0
0
0
0
0
0
0
0
0
0
0
0
0
0
0
0
0
0
0
0
0
0
0
0
0
0
0
0
0
0
0
0
0
0
0
0
0
0
0
0
0
0
0
0
0
0
0
0
0
0
0
0
0
0
0
0
0
0
0
0
0
0
0
0
0
0
0
0
0
0
0
0
0
0
0
0
0
0
0
0
0
0
0
0
0
0
0
0
0
0
0
0
0
0
0
0
0
0
0
0
0
0
0
0
0
0
0
0
0
0
0
0
0
0
0
0
0
0
0
0
0
0
0
0
0
0
0
0
0
0
0
0
0
0
0
0
0
0
0
0
0
0
0
0
0
0
0
0
0
0
0
0
0
0
0
0
0
0
0
0
0
0
0
0
0
0
0
0
0
0
0
0
0
0
0
0
0
0
0
0
0
0
0
0
0
0
0
0
0
0
0
0
0
0
0
0
0
0
0
0
0
0
0
0
0
0
0
0
0
0
0
0
0
0
0
0
0
0
0
0
0
0
0
0
0
0
0
0
0
0
0
0
0
0
0
0
0
0
0
0
0
0
0
0
0
0
0
0
0
0
0
0
0
0
0
0
0
0
0
0
0
0
0
0
0
0
0
0
0
0
0
0
0
0
0
0
0
0
0
0
0
0
0
0
0
0
0
0
0
0
0
0
0
0
0
0
0
0
0
0
0
0
0
0
0
0
0
0
0
0
0
0
0
0
0
0
0
0
0
0
0
0
0
0
0
0
0
0
0
0
0
0
0
0
0
0
0
0
0
0
0
0
0
0
0
0
0
0
0
0
0
0
0
0
0
0
0
0
0
0
0
0
0
0
0
0
0
0
0
0
0
0
0
0
0
0
0
0
0
0
0
0
0
0
0
0
0
0
0
0
0
0
0
0
0
0
0
0
0
0
0
0
0
0
0
0
0
0
0
3.98264e-52
4.60176e-50
2.66021e-48
1.02586e-46
2.96886e-45
6.87786e-44
1.32864e-42
2.20132e-41
3.1933e-40
4.12018e-39
4.78749e-38
5.06034e-37
4.9061e-36
4.39343e-35
3.65563e-34
2.84074e-33
2.07084e-32
1.4217e-31
9.22409e-31
5.67328e-30
3.317e-29
1.84819e-28
9.83606e-28
5.01038e-27
2.44746e-26
1.14845e-25
5.18512e-25
2.25577e-24
9.46936e-24
3.84051e-23
1.50667e-22
5.7239e-22
2.10797e-21
7.53282e-21
2.61441e-20
8.82044e-20
2.89508e-19
9.25174e-19
2.88068e-18
8.74539e-18
2.59036e-17
7.49055e-17
2.11591e-16
5.84196e-16
1.57737e-15
4.16726e-15
1.07776e-14
2.72996e-14
6.77567e-14
1.64854e-13
3.9335e-13
9.20804e-13
2.1156e-12
4.77243e-12
1.05741e-11
2.30193e-11
4.92533e-11
1.03613e-10
2.14367e-10
4.3632e-10
8.73938e-10
1.72309e-09
3.34506e-09
6.39568e-09
1.20467e-08
2.23592e-08
4.09032e-08
7.37692e-08
1.31192e-07
2.30121e-07
3.98209e-07
6.79934e-07
1.14581e-06
1.90607e-06
3.13061e-06
5.07769e-06
8.13458e-06
1.2874e-05
2.01317e-05
3.11111e-05
4.75214e-05
7.17593e-05
0.000107141
0.000158194
0.000231022
0.000333745
0.000477024
0.000674681
0.000944398
0.0013085
0.00179482
0.00243757
0.0032783
0.00436672
0.00576156
0.00753121
0.00975417
0.0125192
0.0159252
0.0200807
0.0251023
0.0311138
0.0382435
0.0466217
0.0563774
0.067635
0.0805097
0.0951039
0.111503
0.12977
0.149944
0.172034
0.19602
0.221847
0.249426
0.278636
0.309323
0.341302
0.374363
0.408272
0.44278
0.477624
0.512539
0.547258
0.581521
0.615082
0.64771
0.679198
0.709365
0.738056
0.765148
0.790549
0.814194
0.836052
0.856117
0.87441
0.890972
0.905866
0.919169
0.930973
0.941376
0.950485
0.958408
0.965255
0.971134
0.97615
0.980403
0.983985
0.986984
0.989479
0.991542
0.993238
0.994622
0.995747
0.996654
0.997382
0.997962
0.998423
0.998785
0.99907
0.999291
0.999463
0.999595
0.999696
0.999773
0.999832
0.999876
0.999909
0.999933
0.999951
0.999964
0.999974
0.999981
0.999985
0.999988
0.999988
0.999987
0.999984
0.999978
0.999967
0.999951
0.999928
0.999892
0.999841
0.999769
0.999666
0.999523
0.999325
0.999056
0.998691
0.998205
0.997562
0.996722
0.995633
0.994238
0.992469
0.990246
0.987481
0.984075
0.979919
0.974898
0.968886
0.961756
0.953378
0.943623
0.932365
0.91949
0.904896
0.888497
0.87023
0.850056
0.827966
0.80398
0.778153
0.750574
0.721364
0.690677
0.658698
0.625637
0.591728
0.55722
0.522376
0.487461
0.452742
0.418479
0.384918
0.35229
0.320802
0.290635
0.261944
0.234852
0.209451
0.185806
0.163948
0.143883
0.12559
0.109028
0.094134
0.0808305
0.0690271
0.058624
0.0495153
0.0415923
0.034745
0.0288657
0.0238496
0.0195972
0.0160149
0.0130159
0.0105208
0.0084578
0.0067624
0.00537759
0.00425328
0.00334594
0.00261804
0.00203755
0.00157732
0.00121457
0.000930297
0.000708808
0.00053722
0.000405043
0.000303798
0.000226681
0.000168267
0.000124264
9.12996e-05
6.67384e-05
4.85375e-05
3.51223e-05
2.52874e-05
1.81155e-05
1.29131e-05
9.15923e-06
6.46461e-06
4.54037e-06
3.17335e-06
2.20714e-06
1.52771e-06
1.05234e-06
7.21427e-07
4.92216e-07
3.34238e-07
2.25894e-07
1.51954e-07
1.01739e-07
6.7802e-08
4.49765e-08
2.96979e-08
1.95198e-08
1.27715e-08
8.31838e-09
5.39351e-09
3.48139e-09
2.23712e-09
1.43118e-09
9.11537e-10
5.78017e-10
3.64923e-10
2.29386e-10
1.43564e-10
8.94639e-11
5.55114e-11
3.42971e-11
2.11e-11
1.29261e-11
7.88534e-12
4.79017e-12
2.89779e-12
1.74573e-12
1.04735e-12
6.25772e-13
3.72359e-13
2.20667e-13
1.30242e-13
7.6561e-14
4.4825e-14
2.61393e-14
1.51824e-14
8.78341e-15
5.06144e-15
2.90522e-15
1.66107e-15
9.46031e-16
5.36713e-16
3.03323e-16
1.70766e-16
9.57726e-17
5.35093e-17
2.97834e-17
1.65152e-17
9.12355e-18
5.02139e-18
2.7534e-18
1.50422e-18
8.1875e-19
4.44018e-19
2.39919e-19
1.29167e-19
6.92895e-20
3.70356e-20
1.97249e-20
1.04679e-20
5.53557e-21
2.91695e-21
1.53167e-21
8.01453e-22
4.17902e-22
2.17151e-22
1.12446e-22
5.80273e-23
2.98421e-23
1.52947e-23
7.81224e-24
3.97685e-24
2.01761e-24
1.02018e-24
5.14117e-25
2.58227e-25
1.29271e-25
6.45006e-26
3.20774e-26
1.59005e-26
7.8561e-27
3.86894e-27
1.8992e-27
9.29289e-28
4.53249e-28
2.20361e-28
1.06795e-28
5.15929e-29
2.4846e-29
1.19278e-29
5.70822e-30
2.72325e-30
1.29517e-30
6.14072e-31
2.90251e-31
1.36772e-31
6.42525e-32
3.00927e-32
1.40512e-32
6.54116e-33
3.03591e-33
1.40482e-33
6.48117e-34
2.98123e-34
1.36726e-34
6.25206e-35
2.85048e-35
1.29581e-35
5.87349e-36
2.65454e-36
1.19625e-36
5.37533e-37
2.40845e-37
1.07604e-37
4.79378e-38
2.12958e-38
9.43367e-39
4.16717e-39
1.83562e-39
8.06318e-40
3.53199e-40
1.54285e-40
6.72089e-41
2.91965e-41
1.26486e-41
5.46465e-42
2.3545e-42
1.0117e-42
4.33541e-43
1.85283e-43
7.89719e-44
3.35696e-44
1.42318e-44
6.0175e-45
2.53759e-45
1.06728e-45
4.47708e-46
1.87314e-46
7.81645e-47
3.25326e-47
1.35051e-47
5.59186e-48
2.30937e-48
9.51296e-49
3.90864e-49
1.60187e-49
6.54825e-50
2.67007e-50
1.08598e-50
4.40586e-51
1.78299e-51
7.19752e-52
2.89824e-52
1.16415e-52
4.66452e-53
1.86438e-53
7.43354e-54
2.9566e-54
1.17309e-54
4.64313e-55
1.83332e-55
7.22132e-56
2.83758e-56
1.11234e-56
4.34999e-57
1.69708e-57
6.60519e-58
2.56471e-58
9.93497e-59
3.83948e-59
1.48033e-59
5.69416e-60
2.18519e-60
8.36639e-61
3.19582e-61
1.21793e-61
4.63089e-62
1.75675e-62
6.64911e-63
2.51088e-63
9.46025e-64
3.55627e-64
1.33385e-64
4.99163e-65
1.86381e-65
6.94372e-66
2.58115e-66
9.57347e-67
3.54293e-67
1.30827e-67
4.82032e-68
1.77215e-68
6.50094e-69
2.3796e-69
8.69135e-70
3.16759e-70
1.15194e-70
4.18022e-71
1.51368e-71
5.46937e-72
1.97203e-72
7.09523e-73
2.5474e-73
9.1266e-74
3.26291e-74
1.16409e-74
4.14437e-75
1.47239e-75
5.22012e-76
1.84687e-76
6.52067e-77
2.29748e-77
8.07822e-78
2.83457e-78
9.92592e-79
3.4687e-79
1.20971e-79
4.21028e-80
1.46239e-80
5.06918e-81
1.75364e-81
6.05439e-82
2.08609e-82
7.17344e-83
2.46184e-83
8.43199e-84
2.88232e-84
9.83325e-85
3.3481e-85
1.13775e-85
3.85878e-86
1.30618e-86
4.4128e-87
1.48793e-87
5.00739e-88
1.68191e-88
5.63846e-89
1.88662e-89
6.30057e-90
2.10013e-90
6.98695e-91
2.3201e-91
7.6896e-92
2.5438e-92
8.39933e-93
2.76817e-93
9.10605e-94
2.9899e-94
9.79889e-95
3.20547e-95
1.04665e-95
3.41125e-96
1.10975e-96
3.60364e-97
1.16805e-97
3.77914e-98
1.22048e-98
3.93445e-99
1.26605e-99
4.06661e-100
1.30387e-100
4.17306e-101
1.33321e-101
4.25175e-102
1.35351e-102
4.30118e-103
)
;

boundaryField
{
    sides
    {
        type            zeroGradient;
    }
    empty
    {
        type            empty;
    }
}


// ************************************************************************* //
