/*--------------------------------*- C++ -*----------------------------------*\
| =========                 |                                                 |
| \\      /  F ield         | OpenFOAM: The Open Source CFD Toolbox           |
|  \\    /   O peration     | Version:  2312                                  |
|   \\  /    A nd           | Website:  www.openfoam.com                      |
|    \\/     M anipulation  |                                                 |
\*---------------------------------------------------------------------------*/
FoamFile
{
    version     2.0;
    format      ascii;
    arch        "LSB;label=32;scalar=64";
    class       volScalarField;
    location    "3.2";
    object      T;
}
// * * * * * * * * * * * * * * * * * * * * * * * * * * * * * * * * * * * * * //

dimensions      [0 0 0 1 0 0 0];

internalField   nonuniform List<scalar> 
1000
(
0
0
0
0
0
0
0
0
0
0
0
0
0
0
0
0
0
0
0
0
0
0
0
0
0
0
0
0
0
0
0
0
0
0
0
0
0
0
0
0
0
0
0
0
0
0
0
0
0
0
0
0
0
0
0
0
0
0
0
0
0
0
0
0
0
0
0
0
0
0
0
0
0
0
0
0
0
0
0
0
0
0
0
0
0
0
0
0
0
0
0
0
0
0
0
0
0
0
0
0
0
0
0
0
0
0
0
0
0
0
0
0
0
0
0
0
0
0
0
0
0
0
0
0
0
0
0
0
0
0
0
0
0
0
0
0
0
0
0
0
0
0
0
0
0
0
0
0
0
0
0
0
0
0
0
0
0
0
0
0
0
0
0
0
0
0
0
0
0
0
0
0
0
0
0
0
0
0
0
0
0
0
0
0
0
0
0
0
0
0
0
0
0
0
0
0
0
0
0
0
0
0
0
0
0
0
0
0
0
0
0
0
0
0
0
0
0
0
0
0
0
0
0
0
0
0
0
0
0
0
0
0
0
0
0
0
0
0
0
0
0
1.5316e-322
1.66747e-320
1.46074e-318
1.27106e-316
1.10093e-314
9.49219e-313
8.14666e-311
6.95964e-309
5.91804e-307
5.0089e-305
4.21958e-303
3.53791e-301
2.95234e-299
2.45197e-297
2.02667e-295
1.66708e-293
1.36467e-291
1.11169e-289
9.01178e-288
7.26942e-286
5.83496e-284
4.6603e-282
3.70352e-280
2.92839e-278
2.30379e-276
1.80321e-274
1.40418e-272
1.08784e-270
8.38405e-269
6.42808e-267
4.90266e-265
3.71957e-263
2.80705e-261
2.10712e-259
1.57326e-257
1.16833e-255
8.62919e-254
6.33874e-252
4.63071e-250
3.36427e-248
2.43062e-246
1.74627e-244
1.24755e-242
8.8622e-241
6.25961e-239
4.39602e-237
3.06947e-235
2.13079e-233
1.47054e-231
1.00891e-229
6.88105e-228
4.66514e-226
3.14387e-224
2.10591e-222
1.40207e-220
9.27766e-219
6.10137e-217
3.98766e-215
2.58995e-213
1.6716e-211
1.07205e-209
6.83168e-208
4.32559e-206
2.72115e-204
1.70069e-202
1.05595e-200
6.51316e-199
3.99065e-197
2.42874e-195
1.46818e-193
8.81498e-192
5.25631e-190
3.11271e-188
1.8305e-186
1.06893e-184
6.19813e-183
3.5684e-181
2.0397e-179
1.15749e-177
6.5207e-176
3.64652e-174
2.02415e-172
1.11522e-170
6.09826e-169
3.30942e-167
1.78226e-165
9.52433e-164
5.05029e-162
2.65697e-160
1.38681e-158
7.1809e-157
3.68842e-155
1.87919e-153
9.49599e-152
4.75901e-150
2.3652e-148
1.16563e-146
5.69593e-145
2.75958e-143
1.32544e-141
6.31081e-140
2.97837e-138
1.39318e-136
6.45847e-135
2.96696e-133
1.35056e-131
6.09113e-130
2.72159e-128
1.20461e-126
5.28118e-125
2.29314e-123
9.86062e-122
4.19862e-120
1.77008e-118
7.38784e-117
3.05234e-115
1.24823e-113
5.05181e-112
2.02323e-110
8.01749e-109
3.1432e-107
1.21897e-105
4.67575e-104
1.77372e-102
6.65335e-101
2.4675e-99
9.04646e-98
3.27824e-96
1.17404e-94
4.1547e-93
1.4526e-91
5.01688e-90
1.71133e-88
5.76472e-87
1.9173e-85
6.29503e-84
2.03997e-82
6.52361e-81
2.05831e-79
6.40635e-78
1.96653e-76
5.95239e-75
1.77622e-73
5.22419e-72
1.51414e-70
4.3235e-69
1.21599e-67
3.36776e-66
9.18252e-65
2.46423e-63
6.50704e-62
1.69024e-60
4.31772e-59
1.08436e-57
2.67653e-56
6.49106e-55
1.54619e-53
3.6163e-52
8.30177e-51
1.86992e-49
4.13101e-48
8.94746e-47
1.89923e-45
3.94913e-44
8.04048e-43
1.6022e-41
3.12315e-40
5.95245e-39
1.10865e-37
2.01672e-36
3.58095e-35
6.20285e-34
1.04748e-32
1.72332e-31
2.76024e-30
4.30096e-29
6.51445e-28
9.58343e-27
1.36808e-25
1.8934e-24
2.53794e-23
3.2913e-22
4.12485e-21
4.98975e-20
5.81858e-19
6.53157e-18
7.04742e-17
7.29714e-16
7.23811e-15
6.86472e-14
6.21224e-13
5.35205e-12
4.37888e-11
3.39306e-10
2.48255e-09
1.70935e-08
1.10349e-07
6.65111e-07
3.72535e-06
1.92874e-05
9.17458e-05
0.000398203
0.00156458
0.0055151
0.0172635
0.0474454
0.113118
0.231318
0.402623
0.597377
0.768682
0.886882
0.952555
0.982737
0.994485
0.998435
0.999602
0.999908
0.999981
0.999996
0.999999
1
1
1
1
1
1
1
1
1
1
1
1
1
1
1
1
1
1
1
1
1
1
1
1
1
1
1
1
1
1
1
1
1
1
1
1
1
1
1
1
1
1
1
1
1
1
1
1
1
1
1
1
1
1
1
1
1
1
1
1
1
1
1
1
1
1
1
1
1
1
1
1
1
1
1
1
0.999999
0.999996
0.999981
0.999908
0.999602
0.998435
0.994485
0.982737
0.952555
0.886882
0.768682
0.597377
0.402623
0.231318
0.113118
0.0474454
0.0172635
0.0055151
0.00156458
0.000398203
9.17458e-05
1.92874e-05
3.72535e-06
6.65111e-07
1.10349e-07
1.70935e-08
2.48255e-09
3.39306e-10
4.37888e-11
5.35205e-12
6.21224e-13
6.86472e-14
7.23811e-15
7.29714e-16
7.04742e-17
6.53157e-18
5.81858e-19
4.98975e-20
4.12485e-21
3.2913e-22
2.53794e-23
1.8934e-24
1.36808e-25
9.58343e-27
6.51445e-28
4.30096e-29
2.76024e-30
1.72332e-31
1.04748e-32
6.20285e-34
3.58095e-35
2.01672e-36
1.10865e-37
5.95245e-39
3.12315e-40
1.6022e-41
8.04048e-43
3.94913e-44
1.89923e-45
8.94746e-47
4.13101e-48
1.86992e-49
8.30177e-51
3.6163e-52
1.54619e-53
6.49106e-55
2.67653e-56
1.08436e-57
4.31772e-59
1.69024e-60
6.50704e-62
2.46423e-63
9.18252e-65
3.36776e-66
1.21599e-67
4.3235e-69
1.51414e-70
5.22419e-72
1.77622e-73
5.95239e-75
1.96653e-76
6.40635e-78
2.05831e-79
6.52361e-81
2.03997e-82
6.29503e-84
1.9173e-85
5.76472e-87
1.71133e-88
5.01688e-90
1.4526e-91
4.1547e-93
1.17404e-94
3.27824e-96
9.04646e-98
2.4675e-99
6.65335e-101
1.77372e-102
4.67575e-104
1.21897e-105
3.1432e-107
8.01749e-109
2.02323e-110
5.05181e-112
1.24823e-113
3.05234e-115
7.38784e-117
1.77008e-118
4.19862e-120
9.86062e-122
2.29314e-123
5.28118e-125
1.20461e-126
2.72159e-128
6.09113e-130
1.35056e-131
2.96696e-133
6.45847e-135
1.39318e-136
2.97837e-138
6.31081e-140
1.32544e-141
2.75958e-143
5.69593e-145
1.16563e-146
2.3652e-148
4.75901e-150
9.49599e-152
1.87919e-153
3.68842e-155
7.1809e-157
1.38681e-158
2.65697e-160
5.05029e-162
9.52433e-164
1.78226e-165
3.30942e-167
6.09826e-169
1.11522e-170
2.02415e-172
3.64652e-174
6.5207e-176
1.15749e-177
2.0397e-179
3.5684e-181
6.19813e-183
1.06893e-184
1.8305e-186
3.11271e-188
5.25631e-190
8.81498e-192
1.46818e-193
2.42874e-195
3.99065e-197
6.51316e-199
1.05595e-200
1.70069e-202
2.72115e-204
4.32559e-206
6.83168e-208
1.07205e-209
1.6716e-211
2.58995e-213
3.98766e-215
6.10137e-217
9.27766e-219
1.40207e-220
2.10591e-222
3.14387e-224
4.66514e-226
6.88105e-228
1.00891e-229
1.47054e-231
2.13079e-233
3.06947e-235
4.39602e-237
6.25961e-239
8.8622e-241
1.24755e-242
1.74627e-244
2.43062e-246
3.36427e-248
4.63071e-250
6.33874e-252
8.62919e-254
1.16833e-255
1.57326e-257
2.10712e-259
2.80705e-261
3.71957e-263
4.90266e-265
6.42808e-267
8.38405e-269
1.08784e-270
1.40418e-272
1.80321e-274
2.30379e-276
2.92839e-278
3.70352e-280
4.6603e-282
5.83496e-284
7.26942e-286
9.01178e-288
1.11169e-289
1.36467e-291
1.66708e-293
2.02667e-295
2.45197e-297
2.95234e-299
3.53791e-301
4.21958e-303
5.0089e-305
5.91804e-307
6.95964e-309
8.14666e-311
9.49219e-313
1.10093e-314
1.27106e-316
1.46074e-318
1.66747e-320
1.5316e-322
0
0
0
0
0
0
0
0
0
0
0
0
0
0
0
0
0
0
0
0
0
0
0
0
0
0
0
0
0
0
0
0
0
0
0
0
0
0
0
0
0
0
0
0
0
0
0
0
0
0
0
0
0
0
0
0
0
0
0
0
0
0
0
0
0
0
0
0
0
0
0
0
0
0
0
0
0
0
0
0
0
0
0
0
0
0
0
0
0
0
0
0
0
0
0
0
0
0
0
0
0
0
0
0
0
0
0
0
0
0
0
0
0
0
0
0
0
0
0
0
0
0
0
0
0
0
0
0
0
0
0
0
0
0
0
0
0
0
0
0
0
0
0
0
0
0
0
0
0
0
0
0
0
0
0
0
0
0
0
0
0
0
0
0
0
0
0
0
0
0
0
0
0
0
0
0
0
0
0
0
0
0
0
0
0
0
0
0
0
0
0
0
0
0
0
0
0
0
0
0
0
0
0
0
0
0
0
0
0
0
0
0
0
0
0
0
0
0
0
0
0
0
0
0
0
0
0
0
0
0
0
0
0
0
0
0
0
0
0
0
0
)
;

boundaryField
{
    sides
    {
        type            zeroGradient;
    }
    empty
    {
        type            empty;
    }
}


// ************************************************************************* //
