/*--------------------------------*- C++ -*----------------------------------*\
| =========                 |                                                 |
| \\      /  F ield         | OpenFOAM: The Open Source CFD Toolbox           |
|  \\    /   O peration     | Version:  2312                                  |
|   \\  /    A nd           | Website:  www.openfoam.com                      |
|    \\/     M anipulation  |                                                 |
\*---------------------------------------------------------------------------*/
FoamFile
{
    version     2.0;
    format      ascii;
    arch        "LSB;label=32;scalar=64";
    class       volScalarField;
    location    "1";
    object      T;
}
// * * * * * * * * * * * * * * * * * * * * * * * * * * * * * * * * * * * * * //

dimensions      [0 0 0 1 0 0 0];

internalField   nonuniform List<scalar> 
1000
(
1.30525e-214
5.84832e-214
3.12898e-213
1.68299e-212
9.04119e-212
4.84989e-211
2.59775e-210
1.38937e-209
7.41987e-209
3.95663e-208
2.10672e-207
1.12005e-206
5.94588e-206
3.15167e-205
1.66805e-204
8.81495e-204
4.65127e-203
2.45053e-202
1.2891e-201
6.77093e-201
3.55093e-200
1.85938e-199
9.72124e-199
5.07461e-198
2.6449e-197
1.37639e-196
7.15141e-196
3.70991e-195
1.92155e-194
9.93704e-194
5.13068e-193
2.64488e-192
1.36127e-191
6.99508e-191
3.58878e-190
1.83825e-189
9.40075e-189
4.79978e-188
2.44668e-187
1.24517e-186
6.32667e-186
3.20931e-185
1.62532e-184
8.21774e-184
4.14812e-183
2.09042e-182
1.05171e-181
5.28251e-181
2.64886e-180
1.32603e-179
6.62704e-179
3.30641e-178
1.64688e-177
8.18903e-177
4.06506e-176
2.01448e-175
9.96596e-175
4.92189e-174
2.42661e-173
1.19432e-172
5.86802e-172
2.87813e-171
1.40921e-170
6.88787e-170
3.36074e-169
1.63691e-168
7.95885e-168
3.86287e-167
1.87155e-166
9.05158e-166
4.36992e-165
2.10595e-164
1.01308e-163
4.86475e-163
2.33182e-162
1.11569e-161
5.32852e-161
2.54027e-160
1.20882e-159
5.74179e-159
2.7223e-158
1.28833e-157
6.08575e-157
2.86944e-156
1.35043e-155
6.34365e-155
2.97436e-154
1.39198e-153
6.50213e-153
3.0315e-152
1.41071e-151
6.55227e-151
3.03752e-150
1.40545e-149
6.4905e-149
2.99161e-148
1.37624e-147
6.3189e-147
2.89565e-146
1.32435e-145
6.04519e-145
2.75401e-144
1.25218e-143
5.6821e-143
2.5733e-142
1.16308e-141
5.24641e-141
2.36182e-140
1.0611e-139
4.75768e-139
2.12889e-138
9.50677e-138
4.2367e-137
1.88424e-136
8.36289e-136
3.70411e-135
1.63725e-134
7.22185e-134
3.17893e-133
1.3964e-132
6.12109e-132
2.67756e-131
1.16879e-130
5.09113e-130
2.21296e-129
9.59867e-129
4.15453e-128
1.79433e-127
7.73308e-127
3.32557e-126
1.42706e-125
6.11046e-125
2.61072e-124
1.11301e-123
4.73464e-123
2.00964e-122
8.51123e-122
3.5967e-121
1.51653e-120
6.38011e-120
2.67815e-119
1.12167e-118
4.68724e-118
1.95428e-117
8.12962e-117
3.37416e-116
1.39723e-115
5.77262e-115
2.37947e-114
9.78548e-114
4.01493e-113
1.64348e-112
6.71174e-112
2.73457e-111
1.11153e-110
4.50741e-110
1.8235e-109
7.35954e-109
2.96319e-108
1.19022e-107
4.76929e-107
1.90648e-106
7.60252e-106
3.02432e-105
1.20016e-104
4.75102e-104
1.87615e-103
7.39057e-103
2.90411e-102
1.13833e-101
4.45083e-101
1.73591e-100
6.75339e-100
2.62072e-99
1.01443e-98
3.91668e-98
1.50837e-97
5.79407e-97
2.21996e-96
8.48372e-96
3.23372e-95
1.22939e-94
4.66171e-94
1.76304e-93
6.65025e-93
2.50188e-92
9.38741e-92
3.51293e-91
1.3111e-90
4.88017e-90
1.81162e-89
6.70696e-89
2.47632e-88
9.11815e-88
3.34826e-87
1.22614e-86
4.47781e-86
1.63076e-85
5.92255e-85
2.14495e-84
7.74659e-84
2.78987e-83
1.00192e-82
3.588e-82
1.28126e-81
4.56228e-81
1.61988e-80
5.73501e-80
2.02456e-79
7.12637e-79
2.50116e-78
8.75275e-78
3.05402e-77
1.06248e-76
3.68539e-76
1.27455e-75
4.39473e-75
1.5108e-74
5.17817e-74
1.76943e-73
6.02801e-73
2.04734e-72
6.93234e-72
2.3401e-71
7.87501e-71
2.64194e-70
8.83575e-70
2.94584e-69
9.79065e-69
3.24375e-68
1.0713e-67
3.5269e-67
1.15742e-66
3.78617e-66
1.23456e-65
4.01254e-65
1.29993e-64
4.19764e-64
1.35105e-63
4.3342e-63
1.38585e-62
4.41653e-62
1.40282e-61
4.44092e-61
1.40115e-60
4.4059e-60
1.38074e-59
4.31235e-59
1.34225e-58
4.16352e-58
1.28704e-57
3.96481e-57
1.21715e-56
3.72347e-56
1.13509e-55
3.44811e-55
1.04375e-54
3.14826e-54
9.46223e-54
2.83374e-53
8.45596e-53
2.51417e-52
7.44816e-52
2.19846e-51
6.46542e-51
1.89442e-50
5.53029e-50
1.60845e-49
4.66064e-49
1.34541e-48
3.86928e-48
1.10857e-47
3.16405e-47
8.99635e-47
2.54814e-46
7.18966e-46
2.02075e-45
5.65754e-45
1.57778e-44
4.3829e-44
1.21273e-43
3.34232e-43
9.17495e-43
2.50855e-42
6.83124e-42
1.85278e-41
5.00481e-41
1.34643e-40
3.60747e-40
9.62581e-40
2.55787e-39
6.76891e-39
1.78381e-38
4.68123e-38
1.22333e-37
3.18342e-37
8.24896e-37
2.12839e-36
5.46817e-36
1.39882e-35
3.5629e-35
9.03559e-35
2.28146e-34
5.73538e-34
1.43548e-33
3.57691e-33
8.87331e-33
2.1914e-32
5.38771e-32
1.31864e-31
3.21277e-31
7.79206e-31
1.88121e-30
4.52087e-30
1.08143e-29
2.57489e-29
6.10226e-29
1.43942e-28
3.37937e-28
7.89637e-28
1.83634e-27
4.25015e-27
9.78969e-27
2.24408e-26
5.11918e-26
1.16211e-25
2.62524e-25
5.90137e-25
1.32005e-24
2.93815e-24
6.50714e-24
1.43393e-23
3.14398e-23
6.85858e-23
1.48861e-22
3.21446e-22
6.90568e-22
1.47593e-21
3.13816e-21
6.6378e-21
1.3967e-20
2.92347e-20
6.08699e-20
1.26068e-19
2.59711e-19
5.32173e-19
1.08463e-18
2.19868e-18
4.43289e-18
8.88882e-18
1.77265e-17
3.51571e-17
6.93429e-17
1.36013e-16
2.653e-16
5.1459e-16
9.92527e-16
1.90357e-15
3.63019e-15
6.88357e-15
1.29781e-14
2.43283e-14
4.53422e-14
8.40184e-14
1.5478e-13
2.83476e-13
5.16137e-13
9.34223e-13
1.68098e-12
3.00672e-12
5.34598e-12
9.44836e-12
1.65986e-11
2.8984e-11
5.0305e-11
8.67793e-11
1.48787e-10
2.5354e-10
4.29388e-10
7.22715e-10
1.20889e-09
2.00956e-09
3.31969e-09
5.44963e-09
8.89001e-09
1.44109e-08
2.32128e-08
3.71535e-08
5.90881e-08
9.33725e-08
1.46605e-07
2.28707e-07
3.54491e-07
5.45903e-07
8.35227e-07
1.26959e-06
1.91728e-06
2.87649e-06
4.28734e-06
6.34829e-06
9.33814e-06
1.36456e-05
1.98085e-05
2.85645e-05
4.09181e-05
5.82255e-05
8.23029e-05
0.000115562
0.000161181
0.000223309
0.000307319
0.000420108
0.000570451
0.000769417
0.00103084
0.00137184
0.00181344
0.00238116
0.00310572
0.00402373
0.00517832
0.00661985
0.00840643
0.0106044
0.0132885
0.0165421
0.0204568
0.0251322
0.0306745
0.0371956
0.0448113
0.0536389
0.0637947
0.0753912
0.0885334
0.103316
0.119818
0.138101
0.158206
0.180146
0.203909
0.229451
0.2567
0.285547
0.315857
0.347463
0.380169
0.413758
0.447993
0.48262
0.51738
0.552007
0.586242
0.619831
0.652537
0.684143
0.714453
0.7433
0.770549
0.796091
0.819854
0.841794
0.861899
0.880182
0.896684
0.911467
0.924609
0.936205
0.946361
0.955189
0.962804
0.969325
0.974868
0.979543
0.983458
0.986712
0.989396
0.991594
0.99338
0.994822
0.995976
0.996894
0.997619
0.998187
0.998628
0.998969
0.999231
0.99943
0.99958
0.999693
0.999777
0.999839
0.999884
0.999917
0.999941
0.999958
0.99997
0.999977
0.999982
0.999984
0.999984
0.999982
0.999977
0.99997
0.999958
0.999941
0.999917
0.999884
0.999839
0.999777
0.999693
0.99958
0.99943
0.999231
0.998969
0.998628
0.998187
0.997619
0.996894
0.995976
0.994822
0.99338
0.991594
0.989396
0.986712
0.983458
0.979543
0.974868
0.969325
0.962804
0.955189
0.946361
0.936205
0.924609
0.911467
0.896684
0.880182
0.861899
0.841794
0.819854
0.796091
0.770549
0.7433
0.714453
0.684143
0.652537
0.619831
0.586242
0.552007
0.51738
0.48262
0.447993
0.413758
0.380169
0.347463
0.315857
0.285547
0.2567
0.229451
0.203909
0.180146
0.158206
0.138101
0.119818
0.103316
0.0885334
0.0753912
0.0637947
0.0536389
0.0448113
0.0371956
0.0306745
0.0251322
0.0204568
0.0165421
0.0132885
0.0106044
0.00840643
0.00661985
0.00517832
0.00402373
0.00310572
0.00238116
0.00181344
0.00137184
0.00103084
0.000769417
0.000570451
0.000420108
0.000307319
0.000223309
0.000161181
0.000115562
8.23029e-05
5.82255e-05
4.09181e-05
2.85645e-05
1.98085e-05
1.36456e-05
9.33814e-06
6.34829e-06
4.28734e-06
2.87649e-06
1.91728e-06
1.26959e-06
8.35227e-07
5.45903e-07
3.54491e-07
2.28707e-07
1.46605e-07
9.33725e-08
5.90881e-08
3.71535e-08
2.32128e-08
1.44109e-08
8.89001e-09
5.44963e-09
3.31969e-09
2.00956e-09
1.20889e-09
7.22715e-10
4.29388e-10
2.5354e-10
1.48787e-10
8.67793e-11
5.0305e-11
2.8984e-11
1.65986e-11
9.44836e-12
5.34598e-12
3.00672e-12
1.68098e-12
9.34223e-13
5.16137e-13
2.83476e-13
1.5478e-13
8.40184e-14
4.53422e-14
2.43283e-14
1.29781e-14
6.88357e-15
3.63019e-15
1.90357e-15
9.92527e-16
5.1459e-16
2.653e-16
1.36013e-16
6.93429e-17
3.51571e-17
1.77265e-17
8.88882e-18
4.43289e-18
2.19868e-18
1.08463e-18
5.32173e-19
2.59711e-19
1.26068e-19
6.08699e-20
2.92347e-20
1.3967e-20
6.6378e-21
3.13816e-21
1.47593e-21
6.90568e-22
3.21446e-22
1.48861e-22
6.85858e-23
3.14398e-23
1.43393e-23
6.50714e-24
2.93815e-24
1.32005e-24
5.90137e-25
2.62524e-25
1.16211e-25
5.11918e-26
2.24408e-26
9.78969e-27
4.25015e-27
1.83634e-27
7.89637e-28
3.37937e-28
1.43942e-28
6.10226e-29
2.57489e-29
1.08143e-29
4.52087e-30
1.88121e-30
7.79206e-31
3.21277e-31
1.31864e-31
5.38771e-32
2.1914e-32
8.87331e-33
3.57691e-33
1.43548e-33
5.73538e-34
2.28146e-34
9.03559e-35
3.5629e-35
1.39882e-35
5.46817e-36
2.12839e-36
8.24896e-37
3.18342e-37
1.22333e-37
4.68123e-38
1.78381e-38
6.76891e-39
2.55787e-39
9.62581e-40
3.60747e-40
1.34643e-40
5.00481e-41
1.85278e-41
6.83124e-42
2.50855e-42
9.17495e-43
3.34232e-43
1.21273e-43
4.3829e-44
1.57778e-44
5.65754e-45
2.02075e-45
7.18966e-46
2.54814e-46
8.99635e-47
3.16405e-47
1.10857e-47
3.86928e-48
1.34541e-48
4.66064e-49
1.60845e-49
5.53029e-50
1.89442e-50
6.46542e-51
2.19846e-51
7.44816e-52
2.51417e-52
8.45596e-53
2.83374e-53
9.46223e-54
3.14826e-54
1.04375e-54
3.44811e-55
1.13509e-55
3.72347e-56
1.21715e-56
3.96481e-57
1.28704e-57
4.16352e-58
1.34225e-58
4.31235e-59
1.38074e-59
4.4059e-60
1.40115e-60
4.44092e-61
1.40282e-61
4.41653e-62
1.38585e-62
4.3342e-63
1.35105e-63
4.19764e-64
1.29993e-64
4.01254e-65
1.23456e-65
3.78617e-66
1.15742e-66
3.5269e-67
1.0713e-67
3.24375e-68
9.79065e-69
2.94584e-69
8.83575e-70
2.64194e-70
7.87501e-71
2.3401e-71
6.93234e-72
2.04734e-72
6.02801e-73
1.76943e-73
5.17817e-74
1.5108e-74
4.39473e-75
1.27455e-75
3.68539e-76
1.06248e-76
3.05402e-77
8.75275e-78
2.50116e-78
7.12637e-79
2.02456e-79
5.73501e-80
1.61988e-80
4.56228e-81
1.28126e-81
3.588e-82
1.00192e-82
2.78987e-83
7.74659e-84
2.14495e-84
5.92255e-85
1.63076e-85
4.47781e-86
1.22614e-86
3.34826e-87
9.11815e-88
2.47632e-88
6.70696e-89
1.81162e-89
4.88017e-90
1.3111e-90
3.51293e-91
9.38741e-92
2.50188e-92
6.65025e-93
1.76304e-93
4.66171e-94
1.22939e-94
3.23372e-95
8.48372e-96
2.21996e-96
5.79407e-97
1.50837e-97
3.91668e-98
1.01443e-98
2.62072e-99
6.75339e-100
1.73591e-100
4.45083e-101
1.13833e-101
2.90411e-102
7.39057e-103
1.87615e-103
4.75102e-104
1.20016e-104
3.02432e-105
7.60252e-106
1.90648e-106
4.76929e-107
1.19022e-107
2.96319e-108
7.35954e-109
1.8235e-109
4.50741e-110
1.11153e-110
2.73457e-111
6.71174e-112
1.64348e-112
4.01493e-113
9.78548e-114
2.37947e-114
5.77262e-115
1.39723e-115
3.37416e-116
8.12962e-117
1.95428e-117
4.68724e-118
1.12167e-118
2.67815e-119
6.38011e-120
1.51653e-120
3.5967e-121
8.51123e-122
2.00964e-122
4.73464e-123
1.11301e-123
2.61072e-124
6.11046e-125
1.42706e-125
3.32557e-126
7.73308e-127
1.79433e-127
4.15453e-128
9.59867e-129
2.21296e-129
5.09113e-130
1.16879e-130
2.67756e-131
6.12109e-132
1.3964e-132
3.17893e-133
7.22185e-134
1.63725e-134
3.70411e-135
8.36289e-136
1.88424e-136
4.2367e-137
9.50677e-138
2.12889e-138
4.75768e-139
1.0611e-139
2.36182e-140
5.24641e-141
1.16308e-141
2.5733e-142
5.6821e-143
1.25218e-143
2.75401e-144
6.04519e-145
1.32435e-145
2.89565e-146
6.3189e-147
1.37624e-147
2.99161e-148
6.4905e-149
1.40545e-149
3.03752e-150
6.55227e-151
1.41071e-151
3.0315e-152
6.50213e-153
1.39198e-153
2.97436e-154
6.34365e-155
1.35043e-155
2.86944e-156
6.08575e-157
1.28833e-157
2.7223e-158
5.74179e-159
1.20882e-159
2.54027e-160
5.32852e-161
1.11569e-161
2.33182e-162
4.86475e-163
1.01308e-163
2.10595e-164
4.36992e-165
9.05158e-166
1.87155e-166
3.86287e-167
7.95885e-168
1.63691e-168
3.36074e-169
6.88787e-170
1.40921e-170
2.87813e-171
5.86802e-172
1.19432e-172
2.42661e-173
4.92189e-174
9.96596e-175
2.01448e-175
4.06506e-176
8.18903e-177
1.64688e-177
3.30641e-178
6.62704e-179
1.32603e-179
2.64886e-180
5.28251e-181
1.05171e-181
2.09042e-182
4.14812e-183
8.21774e-184
1.62532e-184
3.20931e-185
6.32667e-186
1.24517e-186
2.44668e-187
4.79978e-188
9.40075e-189
1.83825e-189
3.58878e-190
6.99508e-191
1.36127e-191
2.64488e-192
5.13068e-193
9.93704e-194
1.92155e-194
3.70991e-195
7.15141e-196
1.37639e-196
2.6449e-197
5.07461e-198
9.72124e-199
1.85938e-199
3.55093e-200
6.77093e-201
1.2891e-201
2.45053e-202
4.65127e-203
8.81495e-204
1.66805e-204
3.15167e-205
5.94588e-206
1.12005e-206
2.10672e-207
3.95663e-208
7.41987e-209
1.38937e-209
2.59775e-210
4.84989e-211
9.04119e-212
1.68299e-212
3.12898e-213
5.84832e-214
1.30525e-214
)
;

boundaryField
{
    sides
    {
        type            zeroGradient;
    }
    empty
    {
        type            empty;
    }
}


// ************************************************************************* //
